  28  28   0   0
  0.1328654E+02  0.5052600E-09  0.5052600E-09  0.1457270E-08  0.1500000E-14
   400.00000000000000     
  CAR 
 C100                                    
     10.20257790    -21.62165303  301      1.09669799      1.00000000
    -21.622  0.0000E+00  0.0000E+00
    -21.516  0.0000E+00  0.0000E+00
    -21.409  0.0000E+00  0.0000E+00
    -21.303  0.0000E+00  0.0000E+00
    -21.197  0.0000E+00  0.0000E+00
    -21.091  0.0000E+00  0.0000E+00
    -20.985 -0.3413E-27 -0.3621E-28
    -20.879 -0.2802E-20 -0.2973E-21
    -20.773 -0.2369E-14 -0.2513E-15
    -20.667 -0.1960E-09 -0.2079E-10
    -20.561 -0.1653E-05 -0.1754E-06
    -20.455 -0.1309E-02 -0.1391E-03
    -20.349 -0.7888E-01 -0.8506E-02
    -20.243  0.3118E+00  0.2457E-01
    -20.137  0.3544E+01  0.4005E+00
    -20.030  0.1079E+01  0.5150E+00
    -19.924 -0.1359E+00  0.5006E+00
    -19.818 -0.5374E-02  0.5000E+00
    -19.712 -0.1993E-01  0.4979E+00
    -19.606 -0.1382E+00  0.4832E+00
    -19.500  0.2274E+01  0.7244E+00
    -19.394  0.2716E+01  0.1013E+01
    -19.288 -0.1257E+00  0.9992E+00
    -19.182 -0.2559E+00  0.9721E+00
    -19.076  0.3975E+01  0.1394E+01
    -18.970  0.5716E+01  0.2000E+01
    -18.864  0.8912E-01  0.2010E+01
    -18.757 -0.9350E-01  0.2000E+01
    -18.651 -0.1324E+00  0.1986E+01
    -18.545  0.5928E+00  0.2049E+01
    -18.439  0.5451E+01  0.2627E+01
    -18.333  0.7156E+01  0.3386E+01
    -18.227  0.1451E+01  0.3540E+01
    -18.121  0.3292E+01  0.3889E+01
    -18.015  0.1184E+01  0.4015E+01
    -17.909 -0.2945E+00  0.3983E+01
    -17.803  0.1542E+01  0.4147E+01
    -17.697  0.3289E+01  0.4496E+01
    -17.591 -0.3074E-01  0.4493E+01
    -17.485  0.3230E+00  0.4527E+01
    -17.378  0.6305E+01  0.5196E+01
    -17.272  0.2979E+01  0.5512E+01
    -17.166  0.1031E+01  0.5621E+01
    -17.060  0.5177E+01  0.6170E+01
    -16.954  0.3163E+01  0.6506E+01
    -16.848 -0.1235E+00  0.6493E+01
    -16.742  0.3462E+01  0.6860E+01
    -16.636  0.5210E+01  0.7413E+01
    -16.530  0.2966E+01  0.7727E+01
    -16.424  0.2678E+01  0.8011E+01
    -16.318 -0.7447E-01  0.8003E+01
    -16.212 -0.1175E+00  0.7991E+01
    -16.105  0.3105E+00  0.8024E+01
    -15.999  0.3459E+01  0.8391E+01
    -15.893  0.4832E+01  0.8903E+01
    -15.787  0.5248E+01  0.9460E+01
    -15.681  0.8936E+00  0.9555E+01
    -15.575  0.3492E+01  0.9925E+01
    -15.469  0.6709E+00  0.9996E+01
    -15.363  0.2192E+01  0.1023E+02
    -15.257  0.2656E+01  0.1051E+02
    -15.151 -0.3809E+00  0.1047E+02
    -15.045  0.2510E+01  0.1074E+02
    -14.939  0.1094E+02  0.1190E+02
    -14.832  0.6095E+01  0.1254E+02
    -14.726  0.2823E+01  0.1284E+02
    -14.620  0.2009E+01  0.1306E+02
    -14.514  0.9696E+01  0.1408E+02
    -14.408  0.4189E+01  0.1453E+02
    -14.302  0.5905E+00  0.1459E+02
    -14.196  0.5945E+01  0.1522E+02
    -14.090  0.5271E+01  0.1578E+02
    -13.984  0.7032E+01  0.1653E+02
    -13.878  0.4675E+01  0.1702E+02
    -13.772 -0.1661E+00  0.1701E+02
    -13.666 -0.6690E-01  0.1700E+02
    -13.560 -0.1551E+00  0.1698E+02
    -13.453  0.1579E+01  0.1715E+02
    -13.347  0.3286E+01  0.1750E+02
    -13.241  0.3256E+01  0.1784E+02
    -13.135  0.4246E+01  0.1829E+02
    -13.029  0.4474E+01  0.1877E+02
    -12.923  0.2360E+01  0.1902E+02
    -12.817  0.2962E+01  0.1933E+02
    -12.711  0.2620E+01  0.1961E+02
    -12.605  0.5378E+01  0.2018E+02
    -12.499  0.3205E+01  0.2052E+02
    -12.393  0.4004E+01  0.2095E+02
    -12.287  0.9503E+01  0.2195E+02
    -12.180  0.5407E+01  0.2253E+02
    -12.074 -0.2699E+00  0.2250E+02
    -11.968  0.1356E+00  0.2251E+02
    -11.862  0.3372E+01  0.2287E+02
    -11.756  0.1156E+01  0.2299E+02
    -11.650  0.5470E+01  0.2357E+02
    -11.544  0.7878E+01  0.2441E+02
    -11.438  0.5014E+01  0.2494E+02
    -11.332  0.6810E+00  0.2501E+02
    -11.226 -0.2197E+00  0.2499E+02
    -11.120  0.3588E+00  0.2503E+02
    -11.014  0.3390E+01  0.2539E+02
    -10.907  0.2344E+01  0.2564E+02
    -10.801  0.7085E+01  0.2639E+02
    -10.695  0.5814E+01  0.2701E+02
    -10.589  0.3295E-01  0.2701E+02
    -10.483 -0.2712E+00  0.2698E+02
    -10.377  0.8143E+00  0.2707E+02
    -10.271  0.7147E+01  0.2783E+02
    -10.165  0.9301E+01  0.2881E+02
    -10.059  0.6085E+01  0.2946E+02
     -9.953  0.5285E+00  0.2951E+02
     -9.847  0.6196E+01  0.3017E+02
     -9.741  0.3175E+01  0.3051E+02
     -9.635  0.1592E+01  0.3068E+02
     -9.528  0.6871E+01  0.3141E+02
     -9.422  0.2426E+01  0.3166E+02
     -9.316  0.3015E+01  0.3198E+02
     -9.210  0.4960E+00  0.3204E+02
     -9.104  0.5255E+01  0.3259E+02
     -8.998  0.9044E+01  0.3355E+02
     -8.892  0.9350E+01  0.3454E+02
     -8.786  0.5035E+01  0.3508E+02
     -8.680  0.6865E+01  0.3581E+02
     -8.574  0.1023E+02  0.3689E+02
     -8.468  0.5858E+01  0.3751E+02
     -8.362  0.8916E+01  0.3846E+02
     -8.255  0.9826E+01  0.3950E+02
     -8.149  0.4801E+01  0.4001E+02
     -8.043 -0.3788E+00  0.3997E+02
     -7.937  0.1978E+01  0.4018E+02
     -7.831  0.1407E+02  0.4167E+02
     -7.725  0.8281E+01  0.4255E+02
     -7.619 -0.5094E+00  0.4250E+02
     -7.513  0.5182E+00  0.4255E+02
     -7.407  0.3694E+01  0.4294E+02
     -7.301  0.6428E+01  0.4363E+02
     -7.195  0.7379E+01  0.4441E+02
     -7.089  0.1814E+01  0.4460E+02
     -6.983  0.3198E+01  0.4494E+02
     -6.876  0.2195E+01  0.4517E+02
     -6.770  0.6442E+01  0.4586E+02
     -6.664  0.2225E+01  0.4609E+02
     -6.558  0.1022E+02  0.4718E+02
     -6.452  0.1342E+02  0.4860E+02
     -6.346  0.2089E+02  0.5082E+02
     -6.240  0.1569E+02  0.5248E+02
     -6.134  0.4934E+01  0.5301E+02
     -6.028  0.3643E+01  0.5339E+02
     -5.922  0.6375E+01  0.5407E+02
     -5.816  0.5601E+01  0.5466E+02
     -5.710  0.3356E+01  0.5502E+02
     -5.603 -0.3238E+00  0.5498E+02
     -5.497  0.1366E+01  0.5513E+02
     -5.391  0.5991E+01  0.5576E+02
     -5.285  0.2324E+01  0.5601E+02
     -5.179  0.5563E+01  0.5660E+02
     -5.073  0.7260E+01  0.5737E+02
     -4.967  0.1115E+01  0.5749E+02
     -4.861  0.5435E+00  0.5755E+02
     -4.755  0.1568E+02  0.5921E+02
     -4.649  0.1417E+02  0.6071E+02
     -4.543  0.7651E+01  0.6152E+02
     -4.437  0.6620E+01  0.6223E+02
     -4.330  0.5934E+01  0.6286E+02
     -4.224  0.7352E+01  0.6364E+02
     -4.118  0.7731E+01  0.6446E+02
     -4.012  0.3057E+01  0.6478E+02
     -3.906  0.8745E+01  0.6571E+02
     -3.800  0.6879E+01  0.6644E+02
     -3.694  0.5843E+01  0.6706E+02
     -3.588  0.1382E+02  0.6852E+02
     -3.482  0.1738E+02  0.7037E+02
     -3.376  0.1111E+02  0.7155E+02
     -3.270  0.1606E+02  0.7325E+02
     -3.164  0.6199E+01  0.7391E+02
     -3.058  0.6759E+01  0.7462E+02
     -2.951  0.7070E+01  0.7537E+02
     -2.845  0.5918E+01  0.7600E+02
     -2.739  0.4829E+01  0.7651E+02
     -2.633  0.3260E+01  0.7686E+02
     -2.527  0.5241E+01  0.7742E+02
     -2.421  0.9365E+00  0.7752E+02
     -2.315 -0.3228E+00  0.7748E+02
     -2.209  0.1154E+01  0.7760E+02
     -2.103  0.5986E+01  0.7824E+02
     -1.997  0.4315E+01  0.7870E+02
     -1.891  0.2911E+01  0.7901E+02
     -1.785 -0.1158E+00  0.7899E+02
     -1.678  0.6147E+00  0.7906E+02
     -1.572  0.3608E+01  0.7944E+02
     -1.466  0.4634E+00  0.7949E+02
     -1.360  0.2665E+01  0.7977E+02
     -1.254  0.7912E+01  0.8061E+02
     -1.148  0.7200E+01  0.8138E+02
     -1.042  0.8011E+01  0.8223E+02
     -0.936  0.6758E+01  0.8294E+02
     -0.830  0.7086E+00  0.8302E+02
     -0.724 -0.1643E+00  0.8300E+02
     -0.618 -0.5356E-02  0.8300E+02
     -0.512 -0.8320E-01  0.8299E+02
     -0.405  0.3568E+00  0.8303E+02
     -0.299  0.3572E+01  0.8341E+02
     -0.193  0.1006E+01  0.8351E+02
     -0.087 -0.1357E+00  0.8350E+02
      0.019 -0.1284E+00  0.8349E+02
      0.125  0.7664E+00  0.8357E+02
      0.231  0.3919E+01  0.8398E+02
      0.337  0.3920E+01  0.8440E+02
      0.443  0.3455E+01  0.8477E+02
      0.549  0.3466E+01  0.8513E+02
      0.655  0.5529E+01  0.8572E+02
      0.761  0.9634E+01  0.8674E+02
      0.867  0.5608E+01  0.8734E+02
      0.974  0.2633E+01  0.8762E+02
      1.080  0.3383E+01  0.8797E+02
      1.186  0.3185E+00  0.8801E+02
      1.292 -0.8089E-01  0.8800E+02
      1.398 -0.1380E-02  0.8800E+02
      1.504 -0.1783E-05  0.8800E+02
      1.610 -0.9181E-09  0.8800E+02
      1.716 -0.4405E-05  0.8800E+02
      1.822 -0.2563E-02  0.8800E+02
      1.928 -0.1059E+00  0.8799E+02
      2.034  0.6199E+00  0.8805E+02
      2.140  0.3641E+01  0.8844E+02
      2.247  0.6733E+00  0.8851E+02
      2.353 -0.1100E+00  0.8850E+02
      2.459 -0.6474E-02  0.8850E+02
      2.565 -0.1491E+00  0.8848E+02
      2.671  0.5329E+00  0.8854E+02
      2.777  0.7299E+01  0.8931E+02
      2.883  0.6369E+01  0.8999E+02
      2.989  0.1627E+01  0.9016E+02
      3.095  0.4108E+01  0.9060E+02
      3.201  0.5638E+01  0.9120E+02
      3.307  0.1444E+02  0.9273E+02
      3.413  0.6161E+01  0.9338E+02
      3.519  0.3884E+01  0.9379E+02
      3.626  0.5444E+01  0.9437E+02
      3.732  0.4023E+01  0.9480E+02
      3.838  0.2068E+01  0.9502E+02
      3.944 -0.2107E+00  0.9500E+02
      4.050 -0.2814E+00  0.9497E+02
      4.156  0.5109E+01  0.9551E+02
      4.262  0.1329E+02  0.9692E+02
      4.368  0.5822E+01  0.9753E+02
      4.474  0.4171E+00  0.9758E+02
      4.580  0.8270E+01  0.9846E+02
      4.686  0.5332E+01  0.9902E+02
      4.792  0.3498E+01  0.9939E+02
      4.899  0.1028E+01  0.9950E+02
      5.005  0.7973E+00  0.9959E+02
      5.111  0.3388E+01  0.9995E+02
      5.217  0.1757E+01  0.1001E+03
      5.323  0.6404E+01  0.1008E+03
      5.429  0.5187E+01  0.1014E+03
      5.535  0.8206E+01  0.1022E+03
      5.641  0.1384E+02  0.1037E+03
      5.747  0.3087E+01  0.1040E+03
      5.853  0.2809E+01  0.1043E+03
      5.959  0.6638E+01  0.1050E+03
      6.065  0.1299E+02  0.1064E+03
      6.172  0.9915E+01  0.1075E+03
      6.278  0.4968E+01  0.1080E+03
      6.384 -0.5981E-01  0.1080E+03
      6.490  0.1684E+01  0.1082E+03
      6.596  0.8949E+01  0.1091E+03
      6.702  0.1157E+02  0.1103E+03
      6.808  0.1731E+02  0.1122E+03
      6.914  0.7916E+01  0.1130E+03
      7.020  0.3081E+01  0.1133E+03
      7.126  0.1997E+01  0.1136E+03
      7.232  0.9172E+01  0.1145E+03
      7.338  0.1453E+02  0.1161E+03
      7.444  0.1394E+02  0.1175E+03
      7.551  0.7548E+01  0.1183E+03
      7.657  0.5385E+01  0.1189E+03
      7.763  0.9356E+01  0.1199E+03
      7.869  0.8476E+01  0.1208E+03
      7.975  0.9884E+01  0.1219E+03
      8.081  0.4938E+01  0.1224E+03
      8.187  0.6017E+01  0.1230E+03
      8.293  0.3878E+01  0.1234E+03
      8.399  0.6381E+01  0.1241E+03
      8.505  0.9652E+01  0.1251E+03
      8.611  0.1637E+02  0.1269E+03
      8.717  0.7355E+01  0.1276E+03
      8.824  0.3166E+01  0.1280E+03
      8.930  0.2410E+00  0.1280E+03
      9.036 -0.7942E-01  0.1280E+03
      9.142 -0.1310E-02  0.1280E+03
      9.248 -0.1653E-05  0.1280E+03
      9.354 -0.1960E-09  0.1280E+03
      9.460 -0.2093E-14  0.1280E+03
      9.566  0.0000E+00  0.1280E+03
      9.672  0.0000E+00  0.1280E+03
      9.778  0.0000E+00  0.1280E+03
      9.884  0.0000E+00  0.1280E+03
      9.990  0.0000E+00  0.1280E+03
     10.096  0.0000E+00  0.1280E+03
     10.203  0.0000E+00  0.1280E+03
     10.60638182    -21.73698118  301      0.67626700      1.00000000
    -21.737  0.0000E+00  0.0000E+00
    -21.629  0.0000E+00  0.0000E+00
    -21.521  0.0000E+00  0.0000E+00
    -21.414  0.0000E+00  0.0000E+00
    -21.306  0.0000E+00  0.0000E+00
    -21.198  0.0000E+00  0.0000E+00
    -21.090 -0.3943E-28 -0.4251E-29
    -20.982 -0.5490E-21 -0.5919E-22
    -20.874 -0.7309E-15 -0.7880E-16
    -20.767 -0.8855E-10 -0.9547E-11
    -20.659 -0.1016E-05 -0.1095E-06
    -20.551 -0.1017E-02 -0.1097E-03
    -20.443 -0.7247E-01 -0.7923E-02
    -20.335  0.2826E+00  0.2254E-01
    -20.228  0.3525E+01  0.4026E+00
    -20.120  0.1038E+01  0.5145E+00
    -20.012 -0.1398E+00  0.4994E+00
    -19.904 -0.1568E+00  0.4825E+00
    -19.796  0.1704E+01  0.6662E+00
    -19.689  0.3128E+01  0.1003E+01
    -19.581  0.1069E-01  0.1005E+01
    -19.473 -0.4283E-01  0.1000E+01
    -19.365 -0.3953E-01  0.9957E+00
    -19.257 -0.1736E+00  0.9770E+00
    -19.150  0.3958E+01  0.1404E+01
    -19.042  0.5472E+01  0.1994E+01
    -18.934  0.1438E+00  0.2009E+01
    -18.826 -0.2380E+00  0.1984E+01
    -18.718  0.6645E+00  0.2055E+01
    -18.610  0.6964E+01  0.2806E+01
    -18.503  0.2060E+01  0.3028E+01
    -18.395 -0.2724E+00  0.2999E+01
    -18.287 -0.1371E+00  0.2984E+01
    -18.179  0.2425E+01  0.3245E+01
    -18.071  0.2503E+01  0.3515E+01
    -17.964 -0.2058E+00  0.3493E+01
    -17.856  0.4023E+00  0.3536E+01
    -17.748  0.3597E+01  0.3924E+01
    -17.640  0.8229E+00  0.4013E+01
    -17.532 -0.1171E+00  0.4000E+01
    -17.425 -0.4871E-01  0.3995E+01
    -17.317 -0.4715E-01  0.3990E+01
    -17.209  0.3432E+01  0.4360E+01
    -17.101  0.5090E+01  0.4909E+01
    -16.993  0.3590E+01  0.5296E+01
    -16.885  0.1884E+01  0.5499E+01
    -16.778  0.7102E+00  0.5575E+01
    -16.670  0.7167E+01  0.6348E+01
    -16.562  0.1648E+01  0.6526E+01
    -16.454 -0.2366E+00  0.6500E+01
    -16.346 -0.1704E+00  0.6482E+01
    -16.239  0.6410E+00  0.6551E+01
    -16.131  0.8430E+01  0.7460E+01
    -16.023  0.5278E+01  0.8029E+01
    -15.915 -0.1581E+00  0.8012E+01
    -15.807  0.4172E+01  0.8462E+01
    -15.700  0.4840E+01  0.8983E+01
    -15.592  0.3642E+01  0.9376E+01
    -15.484  0.1334E+01  0.9520E+01
    -15.376  0.3014E+01  0.9845E+01
    -15.268  0.3194E+01  0.1019E+02
    -15.160  0.3702E+01  0.1059E+02
    -15.053  0.3506E+01  0.1097E+02
    -14.945  0.3365E+00  0.1100E+02
    -14.837  0.2850E+01  0.1131E+02
    -14.729  0.2493E+01  0.1158E+02
    -14.621  0.3416E+01  0.1195E+02
    -14.514  0.6142E+00  0.1201E+02
    -14.406  0.2980E+01  0.1233E+02
    -14.298  0.3857E+01  0.1275E+02
    -14.190  0.7309E+01  0.1354E+02
    -14.082  0.6302E+01  0.1422E+02
    -13.975  0.1014E+02  0.1531E+02
    -13.867  0.1010E+02  0.1640E+02
    -13.759  0.1867E+01  0.1660E+02
    -13.651  0.3447E+01  0.1697E+02
    -13.543  0.3693E+01  0.1737E+02
    -13.436  0.1351E+01  0.1752E+02
    -13.328 -0.2740E+00  0.1749E+02
    -13.220  0.5192E+00  0.1754E+02
    -13.112  0.5983E+01  0.1819E+02
    -13.004  0.3269E+01  0.1854E+02
    -12.896  0.3157E+01  0.1888E+02
    -12.789  0.3686E+01  0.1928E+02
    -12.681  0.1845E+01  0.1948E+02
    -12.573  0.7262E+01  0.2026E+02
    -12.465  0.7237E+01  0.2104E+02
    -12.357 -0.3607E+00  0.2100E+02
    -12.250  0.5779E-01  0.2101E+02
    -12.142  0.3362E+01  0.2137E+02
    -12.034  0.1356E+01  0.2152E+02
    -11.926 -0.1631E+00  0.2150E+02
    -11.818 -0.1702E+00  0.2148E+02
    -11.711  0.2165E+01  0.2171E+02
    -11.603  0.4855E+01  0.2224E+02
    -11.495  0.6889E+01  0.2298E+02
    -11.387  0.1071E+02  0.2413E+02
    -11.279  0.3362E+01  0.2450E+02
    -11.171  0.1164E+01  0.2462E+02
    -11.064  0.3380E+01  0.2499E+02
    -10.956  0.1594E+00  0.2500E+02
    -10.848 -0.4214E+00  0.2496E+02
    -10.740  0.3435E+01  0.2533E+02
    -10.632  0.1084E+02  0.2650E+02
    -10.525  0.4536E+01  0.2699E+02
    -10.417  0.2049E+01  0.2721E+02
    -10.309  0.6036E+01  0.2786E+02
    -10.201  0.2527E+01  0.2813E+02
    -10.093  0.4278E+01  0.2859E+02
     -9.986  0.4051E+01  0.2903E+02
     -9.878  0.4519E+01  0.2952E+02
     -9.770  0.3773E+01  0.2992E+02
     -9.662  0.4603E+01  0.3042E+02
     -9.554  0.9938E+01  0.3149E+02
     -9.447  0.3851E+01  0.3191E+02
     -9.339  0.2320E+01  0.3216E+02
     -9.231  0.3158E+01  0.3250E+02
     -9.123  0.6997E-01  0.3250E+02
     -9.015 -0.3064E+00  0.3247E+02
     -8.907  0.2038E+01  0.3269E+02
     -8.800  0.6734E+01  0.3342E+02
     -8.692  0.3293E+01  0.3377E+02
     -8.584  0.1012E+02  0.3486E+02
     -8.476  0.1568E+02  0.3655E+02
     -8.368  0.4948E+01  0.3709E+02
     -8.261  0.3091E+01  0.3742E+02
     -8.153  0.5470E+00  0.3748E+02
     -8.045  0.3342E+01  0.3784E+02
     -7.937  0.1049E+02  0.3897E+02
     -7.829  0.1044E+02  0.4010E+02
     -7.722  0.3637E+01  0.4049E+02
     -7.614  0.1941E+01  0.4070E+02
     -7.506  0.1478E+02  0.4229E+02
     -7.398  0.9470E+01  0.4331E+02
     -7.290  0.1965E+01  0.4352E+02
     -7.182 -0.2313E+00  0.4350E+02
     -7.075 -0.2677E+00  0.4347E+02
     -6.967  0.4108E+01  0.4391E+02
     -6.859  0.5441E+01  0.4450E+02
     -6.751  0.8581E+00  0.4459E+02
     -6.643  0.3452E+01  0.4496E+02
     -6.536  0.3830E-01  0.4497E+02
     -6.428  0.4826E+01  0.4549E+02
     -6.320  0.1589E+02  0.4720E+02
     -6.212  0.1436E+02  0.4875E+02
     -6.104  0.7154E+01  0.4952E+02
     -5.997  0.7604E+01  0.5034E+02
     -5.889  0.9691E+01  0.5139E+02
     -5.781  0.4597E+01  0.5188E+02
     -5.673  0.3063E+01  0.5221E+02
     -5.565  0.9523E+01  0.5324E+02
     -5.457  0.8872E+01  0.5419E+02
     -5.350  0.1176E+02  0.5546E+02
     -5.242  0.9085E+01  0.5644E+02
     -5.134  0.4287E+00  0.5649E+02
     -5.026  0.2550E+01  0.5676E+02
     -4.918  0.7357E+01  0.5756E+02
     -4.811  0.6779E+01  0.5829E+02
     -4.703  0.9922E+01  0.5936E+02
     -4.595  0.6107E+01  0.6001E+02
     -4.487  0.3782E+01  0.6042E+02
     -4.379  0.6007E+01  0.6107E+02
     -4.272  0.1578E+02  0.6277E+02
     -4.164  0.2224E+02  0.6517E+02
     -4.056  0.7896E+01  0.6602E+02
     -3.948  0.2316E+01  0.6627E+02
     -3.840  0.2351E+01  0.6652E+02
     -3.733  0.6220E+01  0.6719E+02
     -3.625  0.1074E+02  0.6835E+02
     -3.517  0.9354E+01  0.6936E+02
     -3.409  0.5656E+01  0.6997E+02
     -3.301  0.3331E+01  0.7033E+02
     -3.193  0.1559E+02  0.7201E+02
     -3.086  0.9672E+01  0.7305E+02
     -2.978  0.5113E+01  0.7360E+02
     -2.870  0.4098E+01  0.7405E+02
     -2.762  0.5850E+01  0.7468E+02
     -2.654  0.1224E+02  0.7600E+02
     -2.547  0.5115E+01  0.7655E+02
     -2.439 -0.6276E+00  0.7648E+02
     -2.331  0.2275E+01  0.7673E+02
     -2.223  0.5979E+01  0.7737E+02
     -2.115  0.2651E+01  0.7766E+02
     -2.008  0.9501E+01  0.7868E+02
     -1.900  0.7440E+01  0.7948E+02
     -1.792  0.2964E+00  0.7951E+02
     -1.684 -0.3183E+00  0.7948E+02
     -1.576  0.1192E+01  0.7961E+02
     -1.468  0.6660E+01  0.8033E+02
     -1.361  0.2311E+01  0.8058E+02
     -1.253  0.5148E+01  0.8113E+02
     -1.145  0.3936E+01  0.8155E+02
     -1.037  0.5209E+01  0.8212E+02
     -0.929  0.3579E+01  0.8250E+02
     -0.822  0.6796E+00  0.8258E+02
     -0.714  0.3564E+01  0.8296E+02
     -0.606  0.4534E+00  0.8301E+02
     -0.498 -0.2521E+00  0.8298E+02
     -0.390  0.1710E+01  0.8317E+02
     -0.283  0.4710E+01  0.8367E+02
     -0.175  0.2938E+01  0.8399E+02
     -0.067  0.3609E+01  0.8438E+02
      0.041  0.5356E+01  0.8496E+02
      0.149  0.6532E+01  0.8566E+02
      0.257  0.7460E+01  0.8647E+02
      0.364  0.4244E+00  0.8651E+02
      0.472 -0.5864E+00  0.8645E+02
      0.580  0.6066E+01  0.8710E+02
      0.688  0.8608E+01  0.8803E+02
      0.796 -0.1777E+00  0.8801E+02
      0.903 -0.9817E-01  0.8800E+02
      1.011 -0.6862E-03  0.8800E+02
      1.119 -0.3750E-06  0.8800E+02
      1.227 -0.7363E-07  0.8800E+02
      1.335 -0.1610E-03  0.8800E+02
      1.442 -0.2916E-01  0.8800E+02
      1.550 -0.2074E+00  0.8797E+02
      1.658  0.3386E+01  0.8834E+02
      1.766  0.5864E+01  0.8897E+02
      1.874  0.3636E+00  0.8901E+02
      1.981 -0.4450E+00  0.8896E+02
      2.089  0.2327E+01  0.8921E+02
      2.197  0.1074E+02  0.9037E+02
      2.305  0.7449E+01  0.9117E+02
      2.413  0.5221E+01  0.9174E+02
      2.521  0.2411E+01  0.9200E+02
      2.628  0.1438E+01  0.9215E+02
      2.736  0.3211E+01  0.9250E+02
      2.844  0.5039E-01  0.9250E+02
      2.952 -0.1980E+00  0.9248E+02
      3.060  0.1452E+01  0.9264E+02
      3.167  0.2916E+01  0.9295E+02
      3.275  0.6304E+01  0.9363E+02
      3.383  0.8213E+01  0.9452E+02
      3.491 -0.7263E-01  0.9451E+02
      3.599 -0.1039E+00  0.9450E+02
      3.706 -0.9175E-03  0.9450E+02
      3.814 -0.4135E-04  0.9450E+02
      3.922 -0.1264E-01  0.9450E+02
      4.030 -0.2306E+00  0.9447E+02
      4.138  0.1978E+01  0.9469E+02
      4.246  0.7513E+01  0.9550E+02
      4.353  0.8110E+01  0.9637E+02
      4.461  0.1340E+01  0.9652E+02
      4.569 -0.1842E+00  0.9650E+02
      4.677  0.6248E+01  0.9717E+02
      4.785  0.3392E+01  0.9754E+02
      4.892  0.3570E+01  0.9792E+02
      5.000  0.4760E+01  0.9843E+02
      5.108  0.7091E+00  0.9851E+02
      5.216  0.7624E+01  0.9933E+02
      5.324  0.8474E+01  0.1002E+03
      5.431  0.6637E+01  0.1010E+03
      5.539  0.6119E+01  0.1016E+03
      5.647  0.5243E+01  0.1022E+03
      5.755  0.2612E+01  0.1025E+03
      5.863  0.3062E+01  0.1028E+03
      5.970  0.8086E+01  0.1037E+03
      6.078  0.2963E+01  0.1040E+03
      6.186  0.5468E+01  0.1046E+03
      6.294  0.7158E+01  0.1054E+03
      6.402  0.7766E+01  0.1062E+03
      6.510  0.1009E+02  0.1073E+03
      6.617  0.9986E+01  0.1084E+03
      6.725  0.4568E+01  0.1088E+03
      6.833  0.4600E+01  0.1093E+03
      6.941  0.1977E+02  0.1115E+03
      7.049  0.8895E+01  0.1124E+03
      7.156  0.4592E+01  0.1129E+03
      7.264  0.1497E+01  0.1131E+03
      7.372  0.9693E+01  0.1141E+03
      7.480  0.1425E+02  0.1157E+03
      7.588  0.1059E+02  0.1168E+03
      7.695  0.6325E+01  0.1175E+03
      7.803  0.2625E+00  0.1175E+03
      7.911  0.5236E+01  0.1181E+03
      8.019  0.3698E+01  0.1185E+03
      8.127  0.4779E+01  0.1190E+03
      8.235  0.1136E+02  0.1202E+03
      8.342  0.1206E+02  0.1215E+03
      8.450  0.1678E+02  0.1233E+03
      8.558  0.1487E+02  0.1249E+03
      8.666  0.9757E+01  0.1260E+03
      8.774  0.4949E+01  0.1265E+03
      8.881 -0.4585E+00  0.1265E+03
      8.989  0.3114E+01  0.1268E+03
      9.097  0.7368E+01  0.1276E+03
      9.205  0.3576E+01  0.1280E+03
      9.313  0.1938E+00  0.1280E+03
      9.420 -0.7325E-01  0.1280E+03
      9.528 -0.1017E-02  0.1280E+03
      9.636 -0.1016E-05  0.1280E+03
      9.744 -0.8855E-10  0.1280E+03
      9.852 -0.1030E-14  0.1280E+03
      9.960  0.0000E+00  0.1280E+03
     10.067  0.0000E+00  0.1280E+03
     10.175  0.0000E+00  0.1280E+03
     10.283  0.0000E+00  0.1280E+03
     10.391  0.0000E+00  0.1280E+03
     10.499  0.0000E+00  0.1280E+03
     10.606  0.0000E+00  0.1280E+03
     10.32131847    -21.53761809  301      0.87062657      1.00000000
    -21.538  0.0000E+00  0.0000E+00
    -21.431  0.0000E+00  0.0000E+00
    -21.325  0.0000E+00  0.0000E+00
    -21.219  0.0000E+00  0.0000E+00
    -21.113  0.0000E+00  0.0000E+00
    -21.007  0.0000E+00  0.0000E+00
    -20.900 -0.3352E-27 -0.3566E-28
    -20.794 -0.3064E-20 -0.3263E-21
    -20.688 -0.2922E-14 -0.3115E-15
    -20.582 -0.2745E-09 -0.2929E-10
    -20.476 -0.2616E-05 -0.2795E-06
    -20.369 -0.2305E-02 -0.2467E-03
    -20.263 -0.1509E+00 -0.1639E-01
    -20.157  0.5924E+00  0.4697E-01
    -20.051  0.7068E+01  0.8033E+00
    -19.945  0.2114E+01  0.1029E+01
    -19.838 -0.2889E+00  0.9985E+00
    -19.732 -0.3154E+00  0.9648E+00
    -19.626  0.3600E+01  0.1350E+01
    -19.520  0.6163E+01  0.2009E+01
    -19.414 -0.3192E-02  0.2009E+01
    -19.307 -0.8465E-01  0.2000E+01
    -19.201 -0.6173E-01  0.1993E+01
    -19.095 -0.4349E+00  0.1947E+01
    -18.989  0.6953E+01  0.2692E+01
    -18.883  0.1188E+02  0.3962E+01
    -18.777  0.5719E+00  0.4023E+01
    -18.670 -0.4942E+00  0.3970E+01
    -18.564  0.1028E+01  0.4080E+01
    -18.458  0.1363E+02  0.5539E+01
    -18.352  0.4876E+01  0.6060E+01
    -18.246 -0.6079E+00  0.5995E+01
    -18.139 -0.1542E+00  0.5979E+01
    -18.033  0.5655E+01  0.6583E+01
    -17.927  0.7335E+01  0.7366E+01
    -17.821  0.1375E+01  0.7512E+01
    -17.715  0.2372E+00  0.7538E+01
    -17.608  0.3585E+01  0.7924E+01
    -17.502  0.8023E+00  0.8011E+01
    -17.396 -0.2525E+00  0.7984E+01
    -17.290  0.2264E+01  0.8224E+01
    -17.184  0.2555E+01  0.8495E+01
    -17.077  0.3442E+01  0.8866E+01
    -16.971  0.8621E+01  0.9790E+01
    -16.865  0.1368E+02  0.1125E+02
    -16.759  0.7483E+01  0.1205E+02
    -16.653  0.3174E+00  0.1208E+02
    -16.546  0.7118E+01  0.1285E+02
    -16.440  0.1594E+01  0.1302E+02
    -16.334 -0.3966E+00  0.1298E+02
    -16.228  0.4615E+01  0.1347E+02
    -16.122  0.5666E+01  0.1407E+02
    -16.015  0.8194E+01  0.1495E+02
    -15.909  0.5738E+01  0.1557E+02
    -15.803  0.4641E+01  0.1606E+02
    -15.697  0.8120E+01  0.1693E+02
    -15.591  0.7261E+01  0.1771E+02
    -15.484  0.9068E+01  0.1868E+02
    -15.378  0.4746E+01  0.1919E+02
    -15.272  0.6038E+01  0.1983E+02
    -15.166  0.7131E+01  0.2060E+02
    -15.060  0.8927E+01  0.2155E+02
    -14.953  0.3987E+01  0.2198E+02
    -14.847  0.2061E+00  0.2200E+02
    -14.741  0.2673E+01  0.2229E+02
    -14.635  0.4072E+01  0.2273E+02
    -14.529  0.9310E+01  0.2372E+02
    -14.422  0.8504E+01  0.2462E+02
    -14.316  0.8187E+01  0.2550E+02
    -14.210  0.1138E+02  0.2671E+02
    -14.104  0.1707E+02  0.2854E+02
    -13.998  0.1305E+02  0.2993E+02
    -13.891  0.1333E+02  0.3137E+02
    -13.785  0.1354E+02  0.3282E+02
    -13.679  0.5504E+01  0.3341E+02
    -13.573  0.7609E+01  0.3422E+02
    -13.467  0.6197E+01  0.3489E+02
    -13.360  0.1158E+01  0.3501E+02
    -13.254 -0.5847E+00  0.3495E+02
    -13.148  0.7794E+01  0.3578E+02
    -13.042  0.1585E+02  0.3747E+02
    -12.936  0.5384E+01  0.3805E+02
    -12.830  0.4418E+01  0.3852E+02
    -12.723  0.6936E+01  0.3926E+02
    -12.617  0.1857E+01  0.3946E+02
    -12.511  0.1284E+02  0.4084E+02
    -12.405  0.1151E+02  0.4207E+02
    -12.299 -0.6475E+00  0.4200E+02
    -12.192 -0.1225E+00  0.4199E+02
    -12.086  0.4633E+01  0.4249E+02
    -11.980  0.4714E+01  0.4299E+02
    -11.874  0.4750E+00  0.4304E+02
    -11.768  0.3155E+01  0.4338E+02
    -11.661  0.6176E+01  0.4404E+02
    -11.555  0.1325E+02  0.4545E+02
    -11.449  0.1136E+02  0.4667E+02
    -11.343  0.1459E+02  0.4823E+02
    -11.237  0.6869E+01  0.4897E+02
    -11.130  0.4397E+01  0.4944E+02
    -11.024  0.5055E+01  0.4998E+02
    -10.918  0.1614E+01  0.5015E+02
    -10.812  0.6312E+01  0.5082E+02
    -10.706  0.5786E+01  0.5144E+02
    -10.599  0.1472E+02  0.5302E+02
    -10.493  0.8453E+01  0.5393E+02
    -10.387  0.2503E+01  0.5420E+02
    -10.281  0.7522E+01  0.5501E+02
    -10.175  0.9369E+01  0.5600E+02
    -10.068  0.8995E+01  0.5697E+02
     -9.962  0.8043E+01  0.5783E+02
     -9.856  0.1215E+02  0.5913E+02
     -9.750  0.1265E+02  0.6047E+02
     -9.644  0.1103E+02  0.6165E+02
     -9.537  0.1299E+02  0.6305E+02
     -9.431  0.7697E+01  0.6387E+02
     -9.325  0.6565E+01  0.6457E+02
     -9.219  0.4081E+01  0.6501E+02
     -9.113 -0.1007E+00  0.6500E+02
     -9.006 -0.6015E+00  0.6494E+02
     -8.900  0.5899E+01  0.6557E+02
     -8.794  0.1441E+02  0.6711E+02
     -8.688  0.1216E+02  0.6840E+02
     -8.582  0.1509E+02  0.7002E+02
     -8.475  0.2294E+02  0.7248E+02
     -8.369  0.1024E+02  0.7358E+02
     -8.263  0.4177E+01  0.7403E+02
     -8.157  0.6631E+01  0.7473E+02
     -8.051  0.2164E+02  0.7704E+02
     -7.944  0.2226E+02  0.7942E+02
     -7.838  0.1163E+02  0.8067E+02
     -7.732  0.9352E+01  0.8167E+02
     -7.626  0.7049E+01  0.8242E+02
     -7.520  0.2042E+02  0.8461E+02
     -7.413  0.1119E+02  0.8582E+02
     -7.307  0.2871E+01  0.8612E+02
     -7.201  0.5128E+01  0.8667E+02
     -7.095  0.2974E+01  0.8698E+02
     -6.989  0.3995E+01  0.8741E+02
     -6.883  0.5120E+01  0.8797E+02
     -6.776  0.3572E+01  0.8835E+02
     -6.670  0.1551E+02  0.9000E+02
     -6.564  0.8674E+01  0.9092E+02
     -6.458  0.6159E+01  0.9158E+02
     -6.352  0.2865E+02  0.9465E+02
     -6.245  0.2623E+02  0.9746E+02
     -6.139  0.1235E+02  0.9878E+02
     -6.033  0.1382E+02  0.1003E+03
     -5.927  0.1948E+02  0.1023E+03
     -5.821  0.2061E+02  0.1045E+03
     -5.714  0.1372E+02  0.1060E+03
     -5.608  0.1564E+02  0.1077E+03
     -5.502  0.9734E+01  0.1087E+03
     -5.396  0.1847E+02  0.1107E+03
     -5.290  0.1602E+02  0.1124E+03
     -5.183  0.9486E+01  0.1134E+03
     -5.077  0.7766E+01  0.1143E+03
     -4.971  0.8662E+01  0.1152E+03
     -4.865  0.1468E+02  0.1168E+03
     -4.759  0.2082E+02  0.1190E+03
     -4.652  0.9856E+01  0.1200E+03
     -4.546  0.9065E+01  0.1210E+03
     -4.440  0.1774E+02  0.1229E+03
     -4.334  0.2596E+02  0.1257E+03
     -4.228  0.3039E+02  0.1290E+03
     -4.121  0.1821E+02  0.1309E+03
     -4.015  0.7493E+01  0.1317E+03
     -3.909  0.8274E+01  0.1326E+03
     -3.803  0.2149E+02  0.1349E+03
     -3.697  0.2278E+02  0.1373E+03
     -3.590  0.1689E+02  0.1391E+03
     -3.484  0.1083E+02  0.1403E+03
     -3.378  0.5444E+01  0.1409E+03
     -3.272  0.2602E+02  0.1437E+03
     -3.166  0.2132E+02  0.1459E+03
     -3.059  0.1262E+02  0.1473E+03
     -2.953  0.1039E+02  0.1484E+03
     -2.847  0.1577E+02  0.1501E+03
     -2.741  0.2087E+02  0.1523E+03
     -2.635  0.6973E+01  0.1531E+03
     -2.528  0.6034E+00  0.1531E+03
     -2.422  0.5280E+01  0.1537E+03
     -2.316  0.9744E+01  0.1547E+03
     -2.210  0.1170E+02  0.1560E+03
     -2.104  0.1449E+02  0.1575E+03
     -1.997  0.1123E+02  0.1587E+03
     -1.891  0.2684E+01  0.1590E+03
     -1.785 -0.2256E+00  0.1590E+03
     -1.679  0.4500E+01  0.1595E+03
     -1.573  0.8740E+01  0.1604E+03
     -1.466  0.5593E+01  0.1610E+03
     -1.360  0.7358E+01  0.1618E+03
     -1.254  0.9743E+01  0.1628E+03
     -1.148  0.8815E+01  0.1638E+03
     -1.042  0.9829E+01  0.1648E+03
     -0.936  0.2274E+01  0.1651E+03
     -0.829  0.5123E+01  0.1656E+03
     -0.723  0.3576E+01  0.1660E+03
     -0.617 -0.2320E+00  0.1660E+03
     -0.511  0.1664E+01  0.1662E+03
     -0.405  0.4709E+01  0.1667E+03
     -0.298  0.2938E+01  0.1670E+03
     -0.192  0.3605E+01  0.1674E+03
     -0.086  0.5152E+01  0.1679E+03
      0.020  0.7431E+01  0.1687E+03
      0.126  0.1616E+02  0.1705E+03
      0.233  0.5169E+01  0.1710E+03
      0.339 -0.1884E+00  0.1710E+03
      0.445  0.1372E+02  0.1725E+03
      0.551  0.1951E+02  0.1745E+03
      0.657  0.7536E+01  0.1753E+03
      0.764  0.3155E+01  0.1757E+03
      0.870  0.3024E+01  0.1760E+03
      0.976  0.6189E-01  0.1760E+03
      1.082 -0.5302E-01  0.1760E+03
      1.188 -0.7495E-03  0.1760E+03
      1.295 -0.2916E-01  0.1760E+03
      1.401 -0.2074E+00  0.1760E+03
      1.507  0.3386E+01  0.1763E+03
      1.613  0.5864E+01  0.1770E+03
      1.719  0.3315E+00  0.1770E+03