<?xml version="1.0" encoding="ISO-8859-1"?>
<modeling>
 <generator>
  <i name="program" type="string">vasp </i>
  <i name="version" type="string">6.4.2  </i>
  <i name="subversion" type="string">20Jul23 (build Oct 18 2023 12:49:41) complex                          parallel </i>
  <i name="platform" type="string">LinuxGNU </i>
  <i name="date" type="string">2025 06 06 </i>
  <i name="time" type="string">15:07:39 </i>
 </generator>
 <incar>
  <i type="string" name="SYSTEM">C100</i>
  <i type="string" name="PREC">Normal</i>
  <i type="string" name="ALGO">Very Fast</i>
  <i type="int" name="NSIM">     4</i>
  <i name="AMIX">      0.20000000</i>
  <i type="int" name="IBRION">     0</i>
  <i name="EDIFF">      0.00000100</i>
  <i type="int" name="NSW">   250</i>
  <i type="int" name="ISIF">     2</i>
  <i type="int" name="ISYM">     0</i>
  <i type="int" name="NBLOCK">    10</i>
  <i name="ENCUT">    800.00000000</i>
  <i name="POTIM">      1.50000000</i>
  <i name="TEBEG">    400.00000000</i>
  <i name="SMASS">      1.00000000</i>
  <i type="logical" name="LREAL"> F  </i>
  <i type="int" name="ISMEAR">     1</i>
  <i name="SIGMA">      0.10000000</i>
  <i type="logical" name="LWAVE"> F  </i>
  <i type="logical" name="LCHARG"> F  </i>
  <v type="int" name="RANDOM_SEED">******     0     0</v>
  <i type="logical" name="ML_LMLFF"> T  </i>
  <i type="string" name="ML_MODE">train</i>
  <i name="ML_WTSIF">      0.00000000</i>
  <i type="logical" name="LDIPOL"> T  </i>
  <i type="int" name="IDIPOL">     3</i>
  <i type="int" name="IVDW">    10</i>
  <i type="int" name="MDALGO">     2</i>
 </incar>
 <primitive_cell>
  <structure name="primitive_cell" >
   <crystal>
    <varray name="basis" >
     <v>       5.05260000       0.00000000       0.00000000 </v>
     <v>       0.00000000       5.05260000       0.00000000 </v>
     <v>       0.00000000       0.00000000      14.57270000 </v>
    </varray>
    <i name="volume">    372.02305936 </i>
    <varray name="rec_basis" >
     <v>       0.19791790       0.00000000       0.00000000 </v>
     <v>       0.00000000       0.19791790       0.00000000 </v>
     <v>       0.00000000       0.00000000       0.06862146 </v>
    </varray>
   </crystal>
   <varray name="positions" >
    <v>       1.00000000       0.00000000       0.19116364 </v>
    <v>       0.25000000       0.25000000       0.06862000 </v>
    <v>       0.25000000       0.35534278       0.28853100 </v>
    <v>       0.25000000       0.00000000       0.13181645 </v>
    <v>       0.00000000       0.27827508       0.24078839 </v>
    <v>       0.00000000       0.50000000       0.18370063 </v>
    <v>       0.25000000       0.75000000       0.06862000 </v>
    <v>       0.25000000       0.64465722       0.28853100 </v>
    <v>       0.25000000       0.50000000       0.12990139 </v>
    <v>       0.00000000       0.72172492       0.24078839 </v>
    <v>       0.50000000       1.00000000       0.19116364 </v>
    <v>       0.75000000       0.25000000       0.06862000 </v>
    <v>       0.75000000       0.35534278       0.28853100 </v>
    <v>       0.75000000       0.00000000       0.13181645 </v>
    <v>       0.50000000       0.27827508       0.24078839 </v>
    <v>       0.50000000       0.50000000       0.18370063 </v>
    <v>       0.75000000       0.75000000       0.06862000 </v>
    <v>       0.75000000       0.64465722       0.28853100 </v>
    <v>       0.75000000       0.50000000       0.12990139 </v>
    <v>       0.50000000       0.72172492       0.24078839 </v>
    <v>       0.39214934       0.25000000       0.01612382 </v>
    <v>       0.10785066       0.25000000       0.01612382 </v>
    <v>       0.39214934       0.75000000       0.01612382 </v>
    <v>       0.10785066       0.75000000       0.01612382 </v>
    <v>       0.89214934       0.25000000       0.01612382 </v>
    <v>       0.60785066       0.25000000       0.01612382 </v>
    <v>       0.89214934       0.75000000       0.01612382 </v>
    <v>       0.60785066       0.75000000       0.01612382 </v>
   </varray>
  </structure>
  <varray name="primitive_index" >
   <v type="int" >        1 </v>
   <v type="int" >        2 </v>
   <v type="int" >        3 </v>
   <v type="int" >        4 </v>
   <v type="int" >        5 </v>
   <v type="int" >        6 </v>
   <v type="int" >        7 </v>
   <v type="int" >        8 </v>
   <v type="int" >        9 </v>
   <v type="int" >       10 </v>
   <v type="int" >       11 </v>
   <v type="int" >       12 </v>
   <v type="int" >       13 </v>
   <v type="int" >       14 </v>
   <v type="int" >       15 </v>
   <v type="int" >       16 </v>
   <v type="int" >       17 </v>
   <v type="int" >       18 </v>
   <v type="int" >       19 </v>
   <v type="int" >       20 </v>
   <v type="int" >       21 </v>
   <v type="int" >       22 </v>
   <v type="int" >       23 </v>
   <v type="int" >       24 </v>
   <v type="int" >       25 </v>
   <v type="int" >       26 </v>
   <v type="int" >       27 </v>
   <v type="int" >       28 </v>
  </varray>
 </primitive_cell>
 <kpoints>
  <generation param="Gamma">
   <v type="int" name="divisions">       2        2        1 </v>
   <v name="usershift">      0.00000000       0.00000000       0.00000000 </v>
   <v name="genvec1">      0.50000000       0.00000000       0.00000000 </v>
   <v name="genvec2">      0.00000000       0.50000000       0.00000000 </v>
   <v name="genvec3">      0.00000000       0.00000000       1.00000000 </v>
   <v name="shift">      0.00000000       0.00000000       0.00000000 </v>
  </generation>
  <varray name="kpointlist" >
   <v>       0.00000000       0.00000000       0.00000000 </v>
   <v>       0.50000000       0.00000000       0.00000000 </v>
   <v>       0.00000000       0.50000000       0.00000000 </v>
   <v>       0.50000000       0.50000000       0.00000000 </v>
  </varray>
  <varray name="weights" >
   <v>       0.25000000 </v>
   <v>       0.25000000 </v>
   <v>       0.25000000 </v>
   <v>       0.25000000 </v>
  </varray>
 </kpoints>
 <parameters>
  <separator name="general" >
   <i type="string" name="SYSTEM">C100</i>
   <i type="logical" name="LCOMPAT"> F  </i>
  </separator>
  <separator name="electronic" >
   <i type="string" name="PREC">normal</i>
   <i name="ENMAX">    800.00000000</i>
   <i name="ENAUG">    644.87300000</i>
   <i name="EDIFF">      0.00000100</i>
   <i type="int" name="IALGO">    48</i>
   <i type="int" name="IWAVPR">    11</i>
   <i type="int" name="NBANDS">    64</i>
   <i type="int" name="NBANDSLOW">    -1</i>
   <i type="int" name="NBANDSHIGH">    -1</i>
   <i name="NELECT">     88.00000000</i>
   <i type="int" name="TURBO">     0</i>
   <i type="int" name="IRESTART">     0</i>
   <i type="int" name="NREBOOT">     0</i>
   <i type="int" name="NMIN">     0</i>
   <i name="EREF">      0.00000000</i>
   <separator name="electronic smearing" >
    <i type="int" name="ISMEAR">     1</i>
    <i name="SIGMA">      0.10000000</i>
    <i name="KSPACING">      0.50000000</i>
    <i type="logical" name="KGAMMA"> T  </i>
    <i type="logical" name="KBLOWUP"> T  </i>
   </separator>
   <separator name="electronic projectors" >
    <i type="logical" name="LREAL"> F  </i>
    <v name="ROPT">      0.00000000      0.00000000</v>
    <i type="int" name="LMAXPAW">  -100</i>
    <i type="int" name="LMAXMIX">     2</i>
    <i type="logical" name="NLSPLINE"> F  </i>
   </separator>
   <separator name="electronic startup" >
    <i type="int" name="ISTART">     0</i>
    <i type="int" name="ICHARG">     2</i>
    <i type="int" name="INIWAV">     1</i>
   </separator>
   <separator name="electronic spin" >
    <i type="int" name="ISPIN">     1</i>
    <i type="logical" name="LNONCOLLINEAR"> F  </i>
    <v name="MAGMOM">      1.00000000      1.00000000      1.00000000      1.00000000      1.00000000      1.00000000      1.00000000      1.00000000      1.00000000      1.00000000      1.00000000      1.00000000      1.00000000      1.00000000      1.00000000      1.00000000      1.00000000      1.00000000      1.00000000      1.00000000
      1.00000000      1.00000000      1.00000000      1.00000000      1.00000000      1.00000000      1.00000000      1.00000000</v>
    <i name="NUPDOWN">     -1.00000000</i>
    <i type="logical" name="LSORBIT"> F  </i>
    <v name="SAXIS">      0.00000000      0.00000000      1.00000000</v>
    <i type="logical" name="LSPIRAL"> F  </i>
    <v name="QSPIRAL">      0.00000000      0.00000000      0.00000000</v>
    <i type="logical" name="LZEROZ"> F  </i>
   </separator>
   <separator name="electronic exchange-correlation" >
    <i type="logical" name="LASPH"> F  </i>
    <i type="logical" name="LMETAGGA"> F  </i>
   </separator>
   <separator name="electronic convergence" >
    <i type="int" name="NELM">    60</i>
    <i type="int" name="NELMDL">   -12</i>
    <i type="int" name="NELMIN">     2</i>
    <i name="ENINI">    800.00000000</i>
    <separator name="electronic convergence detail" >
     <i type="logical" name="LDIAG"> T  </i>
     <i type="logical" name="LSUBROT"> F  </i>
     <i name="WEIMIN">      0.00100000</i>
     <i name="EBREAK">      0.00000000</i>
     <i name="DEPER">      0.30000000</i>
     <i type="int" name="NRMM">     4</i>
     <i name="TIME">      0.40000000</i>
    </separator>
   </separator>
   <separator name="electronic mixer" >
    <i name="AMIX">      0.20000000</i>
    <i name="BMIX">      1.00000000</i>
    <i name="AMIN">      0.10000000</i>
    <i name="AMIX_MAG">      0.80000000</i>
    <i name="BMIX_MAG">      1.00000000</i>
    <separator name="electronic mixer details" >
     <i type="int" name="IMIX">     4</i>
     <i type="logical" name="MIXFIRST"> F  </i>
     <i type="int" name="MAXMIX">   -45</i>
     <i name="WC">    100.00000000</i>
     <i type="int" name="INIMIX">     1</i>
     <i type="int" name="MIXPRE">     1</i>
     <i type="int" name="MREMOVE">     5</i>
    </separator>
   </separator>
   <separator name="electronic dipolcorrection" >
    <i type="logical" name="LDIPOL"> T  </i>
    <i type="logical" name="LMONO"> F  </i>
    <i type="int" name="IDIPOL">     3</i>
    <i name="EPSILON">      1.00000000</i>
    <v name="DIPOL">   -100.00000000   -100.00000000   -100.00000000</v>
    <i name="EFIELD">      0.00000000</i>
   </separator>
  </separator>
  <separator name="grids" >
   <i type="int" name="NGX">    36</i>
   <i type="int" name="NGY">    36</i>
   <i type="int" name="NGZ">   108</i>
   <i type="int" name="NGXF">    72</i>
   <i type="int" name="NGYF">    72</i>
   <i type="int" name="NGZF">   216</i>
   <i type="logical" name="ADDGRID"> F  </i>
  </separator>
  <separator name="ionic" >
   <i type="int" name="NSW">   250</i>
   <i type="int" name="IBRION">     0</i>
   <i type="int" name="MDALGO">     2</i>
   <i type="int" name="ISIF">     2</i>
   <i name="PSTRESS">      0.00000000</i>
   <i name="EDIFFG">      0.00001000</i>
   <i type="int" name="NFREE">     0</i>
   <i name="POTIM">      1.50000000</i>
   <i name="SMASS">      1.00000000</i>
   <i name="SCALEE">      1.00000000</i>
  </separator>
  <separator name="ionic md" >
   <i name="TEBEG">    400.00000000</i>
   <i name="TEEND">    400.00000000</i>
   <i type="int" name="NBLOCK">    10</i>
   <i type="int" name="KBLOCK">     1</i>
   <i type="int" name="NPACO">   256</i>
   <i name="APACO">     10.00000000</i>
  </separator>
  <separator name="symmetry" >
   <i type="int" name="ISYM">     0</i>
   <i name="SYMPREC">      0.00001000</i>
  </separator>
  <separator name="dos" >
   <i type="int" name="LORBIT">     0</i>
   <v name="RWIGS">     -1.00000000     -1.00000000</v>
   <i type="int" name="NEDOS">   301</i>
   <i name="EMIN">     10.00000000</i>
   <i name="EMAX">    -10.00000000</i>
   <i name="EFERMI">      0.00000000</i>
  </separator>
  <separator name="writing" >
   <i type="int" name="NWRITE">     2</i>
   <i type="logical" name="LWAVE"> F  </i>
   <i type="logical" name="LDOWNSAMPLE"> F  </i>
   <i type="logical" name="LCHARG"> F  </i>
   <i type="logical" name="LPARD"> F  </i>
   <i type="logical" name="LVTOT"> F  </i>
   <i type="logical" name="LVHAR"> F  </i>
   <i type="logical" name="LELF"> F  </i>
   <i type="logical" name="LOPTICS"> F  </i>
   <v name="STM">      0.00000000      0.00000000      0.00000000      0.00000000      0.00000000      0.00000000      0.00000000</v>
  </separator>
  <separator name="performance" >
   <i type="int" name="NPAR">     8</i>
   <i type="int" name="NSIM">     4</i>
   <i type="int" name="NBLK">    -1</i>
   <i type="logical" name="LPLANE"> T  </i>
   <i type="logical" name="LSCALAPACK"> T  </i>
   <i type="logical" name="LSCAAWARE"> F  </i>
   <i type="logical" name="LSCALU"> F  </i>
   <i type="logical" name="LASYNC"> F  </i>
   <i type="logical" name="LORBITALREAL"> F  </i>
  </separator>
  <separator name="miscellaneous" >
   <i type="int" name="IDIOT">     3</i>
   <i type="int" name="PHON_NSTRUCT">    -1</i>
   <i type="logical" name="LMUSIC"> F  </i>
   <v name="POMASS">     12.01100000      1.00000000</v>
   <v name="DARWINR">      0.00000000      0.00000000</v>
   <v name="DARWINV">      1.00000000      1.00000000</v>
   <i type="logical" name="LCORR"> T  </i>
  </separator>
  <i type="logical" name="GGA_COMPAT"> T  </i>
  <i type="logical" name="LBERRY"> F  </i>
  <i type="int" name="ICORELEVEL">     0</i>
  <i type="logical" name="LDAU"> F  </i>
  <i type="int" name="I_CONSTRAINED_M">     0</i>
  <separator name="electronic exchange-correlation" >
   <i type="string" name="GGA">--</i>
   <i type="int" name="VOSKOWN">     0</i>
   <i type="logical" name="LHFCALC"> F  </i>
   <i type="string" name="PRECFOCK"></i>
   <i type="logical" name="LSYMGRAD"> F  </i>
   <i type="logical" name="LHFONE"> F  </i>
   <i type="logical" name="LRHFCALC"> F  </i>
   <i type="logical" name="LTHOMAS"> F  </i>
   <i type="logical" name="LMODELHF"> F  </i>
   <i type="logical" name="LFOCKACE"> F  </i>
   <i name="ENCUT4O">     -1.00000000</i>
   <i type="int" name="EXXOEP">     0</i>
   <i type="int" name="FOURORBIT">     0</i>
   <i name="AEXX">      0.00000000</i>
   <i name="HFALPHA">      0.00000000</i>
   <i name="MCALPHA">      0.00000000</i>
   <i name="ALDAX">      1.00000000</i>
   <i name="AGGAX">      1.00000000</i>
   <i name="ALDAC">      1.00000000</i>
   <i name="AGGAC">      1.00000000</i>
   <i type="int" name="NKREDX">     1</i>
   <i type="int" name="NKREDY">     1</i>
   <i type="int" name="NKREDZ">     1</i>
   <i type="logical" name="SHIFTRED"> F  </i>
   <i type="logical" name="ODDONLY"> F  </i>
   <i type="logical" name="EVENONLY"> F  </i>
   <i type="int" name="LMAXFOCK">     0</i>
   <i type="int" name="NMAXFOCKAE">     0</i>
   <i type="logical" name="LFOCKAEDFT"> F  </i>
   <i name="HFSCREEN">      0.00000000</i>
   <i name="HFSCREENC">      0.00000000</i>
   <i type="int" name="NBANDSGWLOW">     0</i>
  </separator>
  <separator name="vdW DFT" >
   <i type="logical" name="LUSE_VDW"> F  </i>
   <i type="int" name="IVDW_NL">     1</i>
   <i type="logical" name="LSPIN_VDW"> F  </i>
   <i name="Zab_VDW">     -0.84910000</i>
   <i name="PARAM1">      0.12340000</i>
   <i name="PARAM2">      1.00000000</i>
   <i name="PARAM3">      0.00000000</i>
  </separator>
  <separator name="model GW" >
   <i type="int" name="MODEL_GW">     0</i>
   <i name="MODEL_EPS0">      7.97192270</i>
   <i name="MODEL_ALPHA">      1.00000000</i>
  </separator>
  <separator name="linear response parameters" >
   <i type="logical" name="LEPSILON"> F  </i>
   <i type="logical" name="LRPA"> F  </i>
   <i type="logical" name="LNABLA"> F  </i>
   <i type="logical" name="LVEL"> F  </i>
   <i name="CSHIFT">      0.10000000</i>
   <i name="OMEGAMAX">     -1.00000000</i>
   <i name="DEG_THRESHOLD">      0.00200000</i>
   <i name="RTIME">     -0.10000000</i>
   <i name="WPLASMAI">      0.00000000</i>
   <v name="DFIELD">      0.00000000      0.00000000      0.00000000</v>
   <v name="WPLASMA">      0.00000000      0.00000000      0.00000000      0.00000000      0.00000000      0.00000000      0.00000000      0.00000000      0.00000000</v>
  </separator>
  <separator name="orbital magnetization" >
   <i type="logical" name="NUCIND"> F  </i>
   <v name="MAGPOS">      0.00000000      0.00000000      0.00000000</v>
   <i type="logical" name="LNICSALL"> T  </i>
   <i type="logical" name="ORBITALMAG"> F  </i>
   <i type="logical" name="LMAGBLOCH"> F  </i>
   <i type="logical" name="LCHIMAG"> F  </i>
   <i type="logical" name="LGAUGE"> T  </i>
   <i type="int" name="MAGATOM">     0</i>
   <v name="MAGDIPOL">      0.00000000      0.00000000      0.00000000</v>
   <v name="AVECCONST">      0.00000000      0.00000000      0.00000000</v>
  </separator>
  <separator name="response functions" >
   <i type="logical" name="LALL_IN_ONE"> F  </i>
   <i type="int" name="IALL_IN_ONE">    -1</i>
   <i type="int" name="NBANDS_WAVE">    -1</i>
   <i type="logical" name="LFINITE_TEMPERATURE"> F  </i>
   <i type="logical" name="LADDER"> F  </i>
   <i type="logical" name="LRPAFORCE"> F  </i>
   <i type="logical" name="LFXC"> F  </i>
   <i type="logical" name="LHARTREE"> T  </i>
   <i type="int" name="IBSE">     0</i>
   <v type="int" name="KPOINT">    -1     0     0     0</v>
   <i type="logical" name="LTCTC"> F  </i>
   <i type="logical" name="LTCTE"> F  </i>
   <i type="logical" name="LTETE"> F  </i>
   <i type="logical" name="LTRIPLET"> F  </i>
   <i type="logical" name="LFXCEPS"> F  </i>
   <i type="logical" name="LFXHEG"> F  </i>
   <i type="int" name="NATURALO">     2</i>
   <i type="logical" name="LHOLEGF"> F  </i>
   <i type="logical" name="L2ORDER"> F  </i>
   <i type="logical" name="LDMP1"> F  </i>
   <i type="logical" name="LMP2LT"> F  </i>
   <i type="logical" name="LSMP2LT"> F  </i>
   <i type="logical" name="LGWLF"> F  </i>
   <i name="ENCUTGW">     -1.60000002</i>
   <i name="ENCUTGWSOFT">     -1.60000002</i>
   <i name="ENCUTLF">     -1.00000000</i>
   <i type="logical" name="LESF_SPLINES"> F  </i>
   <i type="int" name="LMAXMP2">    -1</i>
   <i name="SCISSOR">      0.00000000</i>
   <i type="int" name="NOMEGA">     0</i>
   <i type="int" name="NOMEGAR">     0</i>
   <i type="int" name="NBANDSGW">    -1</i>
   <i type="int" name="NBANDSO">    -1</i>
   <i type="int" name="NBANDSV">    -1</i>
   <i type="int" name="NELMGW">     1</i>
   <i type="int" name="NELMHF">     1</i>
   <i type="int" name="DIM">     3</i>
   <i type="int" name="IESPILON">     4</i>
   <i type="int" name="ANTIRES">     0</i>
   <i name="OMEGAMAX">    -30.00000000</i>
   <i name="OMEGAMIN">    -30.00000000</i>
   <i name="OMEGATL">   -200.00000000</i>
   <i type="int" name="OMEGAGRID">     0</i>
   <i name="CSHIFT">     -0.10000000</i>
   <i type="logical" name="LSELFENERGY"> F  </i>
   <i type="logical" name="LSPECTRAL"> F  </i>
   <i type="logical" name="LSPECTRALGW"> F  </i>
   <i type="logical" name="LSINGLES"> F  </i>
   <i type="logical" name="LFERMIGW"> F  </i>
   <i type="logical" name="ODDONLYGW"> F  </i>
   <i type="logical" name="EVENONLYGW"> F  </i>
   <i type="int" name="NKREDLFX">     1</i>
   <i type="int" name="NKREDLFY">     1</i>
   <i type="int" name="NKREDLFZ">     1</i>
   <i type="int" name="MAXMEM">  2800</i>
   <i type="int" name="TELESCOPE">     0</i>
   <i type="int" name="NTAUPAR">    -1</i>
   <i type="int" name="NOMEGAPAR">    -1</i>
   <i name="DAMP_NEWTON">      0.80000001</i>
   <i name="LAMBDA">      1.00000000</i>
  </separator>
  <separator name="External order field" >
   <i name="OFIELD_KAPPA">      0.00000000</i>
   <v name="OFIELD_K">      0.00000000      0.00000000      0.00000000</v>
   <i name="OFIELD_Q6_NEAR">      0.00000000</i>
   <i name="OFIELD_Q6_FAR">      0.00000000</i>
   <i name="OFIELD_A">      0.00000000</i>
  </separator>
  <separator name="optional k-points parameters" >
   <i type="int" name="KPOINTS_OPT_MODE">     1</i>
   <i type="logical" name="LKPOINTS_OPT"> F  </i>
  </separator>
 </parameters>
 <atominfo>
  <atoms>      28 </atoms>
  <types>       2 </types>
  <array name="atoms" >
   <dimension dim="1">ion</dimension>
   <field type="string">element</field>
   <field type="int">atomtype</field>
   <set>
    <rc><c>C </c><c>   1</c></rc>
    <rc><c>C </c><c>   1</c></rc>
    <rc><c>C </c><c>   1</c></rc>
    <rc><c>C </c><c>   1</c></rc>
    <rc><c>C </c><c>   1</c></rc>
    <rc><c>C </c><c>   1</c></rc>
    <rc><c>C </c><c>   1</c></rc>
    <rc><c>C </c><c>   1</c></rc>
    <rc><c>C </c><c>   1</c></rc>
    <rc><c>C </c><c>   1</c></rc>
    <rc><c>C </c><c>   1</c></rc>
    <rc><c>C </c><c>   1</c></rc>
    <rc><c>C </c><c>   1</c></rc>
    <rc><c>C </c><c>   1</c></rc>
    <rc><c>C </c><c>   1</c></rc>
    <rc><c>C </c><c>   1</c></rc>
    <rc><c>C </c><c>   1</c></rc>
    <rc><c>C </c><c>   1</c></rc>
    <rc><c>C </c><c>   1</c></rc>
    <rc><c>C </c><c>   1</c></rc>
    <rc><c>H </c><c>   2</c></rc>
    <rc><c>H </c><c>   2</c></rc>
    <rc><c>H </c><c>   2</c></rc>
    <rc><c>H </c><c>   2</c></rc>
    <rc><c>H </c><c>   2</c></rc>
    <rc><c>H </c><c>   2</c></rc>
    <rc><c>H </c><c>   2</c></rc>
    <rc><c>H </c><c>   2</c></rc>
   </set>
  </array>
  <array name="atomtypes" >
   <dimension dim="1">type</dimension>
   <field type="int">atomspertype</field>
   <field type="string">element</field>
   <field>mass</field>
   <field>valence</field>
   <field type="string">pseudopotential</field>
   <set>
    <rc><c>  20</c><c>C </c><c>     12.01100000</c><c>      4.00000000</c><c>  PAW_PBE C 08Apr2002                   </c></rc>
    <rc><c>   8</c><c>H </c><c>      1.00000000</c><c>      1.00000000</c><c>  PAW_PBE H 15Jun2001                   </c></rc>
   </set>
  </array>
 </atominfo>
 <structure name="initialpos" >
  <crystal>
   <varray name="basis" >
    <v>       5.05260000       0.00000000       0.00000000 </v>
    <v>       0.00000000       5.05260000       0.00000000 </v>
    <v>       0.00000000       0.00000000      14.57270000 </v>
   </varray>
   <i name="volume">    372.02305936 </i>
   <varray name="rec_basis" >
    <v>       0.19791790       0.00000000       0.00000000 </v>
    <v>       0.00000000       0.19791790       0.00000000 </v>
    <v>       0.00000000       0.00000000       0.06862146 </v>
   </varray>
  </crystal>
  <varray name="positions" >
   <v>       1.00000000       0.00000000       0.19116364 </v>
   <v>       0.25000000       0.25000000       0.06862000 </v>
   <v>       0.25000000       0.35534278       0.28853100 </v>
   <v>       0.25000000       0.00000000       0.13181645 </v>
   <v>       0.00000000       0.27827508       0.24078839 </v>
   <v>       0.00000000       0.50000000       0.18370063 </v>
   <v>       0.25000000       0.75000000       0.06862000 </v>
   <v>       0.25000000       0.64465722       0.28853100 </v>
   <v>       0.25000000       0.50000000       0.12990139 </v>
   <v>       0.00000000       0.72172492       0.24078839 </v>
   <v>       0.50000000       1.00000000       0.19116364 </v>
   <v>       0.75000000       0.25000000       0.06862000 </v>
   <v>       0.75000000       0.35534278       0.28853100 </v>
   <v>       0.75000000       0.00000000       0.13181645 </v>
   <v>       0.50000000       0.27827508       0.24078839 </v>
   <v>       0.50000000       0.50000000       0.18370063 </v>
   <v>       0.75000000       0.75000000       0.06862000 </v>
   <v>       0.75000000       0.64465722       0.28853100 </v>
   <v>       0.75000000       0.50000000       0.12990139 </v>
   <v>       0.50000000       0.72172492       0.24078839 </v>
   <v>       0.39214934       0.25000000       0.01612382 </v>
   <v>       0.10785066       0.25000000       0.01612382 </v>
   <v>       0.39214934       0.75000000       0.01612382 </v>
   <v>       0.10785066       0.75000000       0.01612382 </v>
   <v>       0.89214934       0.25000000       0.01612382 </v>
   <v>       0.60785066       0.25000000       0.01612382 </v>
   <v>       0.89214934       0.75000000       0.01612382 </v>
   <v>       0.60785066       0.75000000       0.01612382 </v>
  </varray>
  <varray name="selective"  type="logical" >
   <v type="logical" >  T  T  T </v>
   <v type="logical" >  F  F  F </v>
   <v type="logical" >  T  T  T </v>
   <v type="logical" >  T  T  T </v>
   <v type="logical" >  T  T  T </v>
   <v type="logical" >  T  T  T </v>
   <v type="logical" >  F  F  F </v>
   <v type="logical" >  T  T  T </v>
   <v type="logical" >  T  T  T </v>
   <v type="logical" >  T  T  T </v>
   <v type="logical" >  T  T  T </v>
   <v type="logical" >  F  F  F </v>
   <v type="logical" >  T  T  T </v>
   <v type="logical" >  T  T  T </v>
   <v type="logical" >  T  T  T </v>
   <v type="logical" >  T  T  T </v>
   <v type="logical" >  F  F  F </v>
   <v type="logical" >  T  T  T </v>
   <v type="logical" >  T  T  T </v>
   <v type="logical" >  T  T  T </v>
   <v type="logical" >  F  F  F </v>
   <v type="logical" >  F  F  F </v>
   <v type="logical" >  F  F  F </v>
   <v type="logical" >  F  F  F </v>
   <v type="logical" >  F  F  F </v>
   <v type="logical" >  F  F  F </v>
   <v type="logical" >  F  F  F </v>
   <v type="logical" >  F  F  F </v>
  </varray>
  <varray name="velocities" >
   <v>      -0.00139854       0.00007623      -0.00045877 </v>
   <v>       0.00000000       0.00000000       0.00000000 </v>
   <v>      -0.00021819       0.00151549       0.00086117 </v>
   <v>      -0.00075473      -0.00180352       0.00068045 </v>
   <v>      -0.00125173      -0.00068557       0.00012385 </v>
   <v>      -0.00201389       0.00148799      -0.00106616 </v>
   <v>       0.00000000       0.00000000       0.00000000 </v>
   <v>       0.00081916      -0.00220865      -0.00023961 </v>
   <v>      -0.00010330       0.00052917      -0.00039754 </v>
   <v>       0.00003460      -0.00111593       0.00074482 </v>
   <v>      -0.00098110      -0.00053714      -0.00003900 </v>
   <v>       0.00000000       0.00000000       0.00000000 </v>
   <v>      -0.00012669      -0.00022222       0.00064732 </v>
   <v>       0.00021516      -0.00137245      -0.00198544 </v>
   <v>       0.00063277      -0.00143016       0.00011087 </v>
   <v>      -0.00113776      -0.00232408      -0.00046959 </v>
   <v>       0.00000000       0.00000000       0.00000000 </v>
   <v>      -0.00100839       0.00043899      -0.00004356 </v>
   <v>      -0.00158135      -0.00086004       0.00047238 </v>
   <v>      -0.00151536      -0.00164011       0.00068782 </v>
   <v>       0.00000000       0.00000000       0.00000000 </v>
   <v>       0.00000000       0.00000000       0.00000000 </v>
   <v>       0.00000000       0.00000000       0.00000000 </v>
   <v>       0.00000000       0.00000000       0.00000000 </v>
   <v>       0.00000000       0.00000000       0.00000000 </v>
   <v>       0.00000000       0.00000000       0.00000000 </v>
   <v>       0.00000000       0.00000000       0.00000000 </v>
   <v>       0.00000000       0.00000000       0.00000000 </v>
  </varray>
  <nose>
   <v>       1.00000000       0.00000000     400.00000000     400.00000000 </v>
  </nose>
 </structure>
 <calculation>
  <scstep>
   <time name="diag">    0.47    0.47</time>
   <time name="diis">    1.27    1.27</time>
   <time name="orth">    0.03    0.03</time>
   <time name="total">    1.89    1.89</time>
   <dipole>
    <v name="dipole">      0.00000000       0.00000000       0.00018639 </v>
    <i name="Tr[quadrupol]">   -403.65429543 </i>
    <i name="Echarged">      0.00000000 </i>
    <i name="Edipol_quadrupol">      0.00000000 </i>
    <i name="Eion">      0.00000000 </i>
   </dipole>
   <energy>
    <i name="alphaZ">    101.76669439 </i>
    <i name="ewald">  12596.32655686 </i>
    <i name="hartreedc"> -15133.11808191 </i>
    <i name="XCdc">    295.01663132 </i>
    <i name="pawpsdc">   2187.51314709 </i>
    <i name="pawaedc">  -2198.97228554 </i>
    <i name="eentropy">      0.00524447 </i>
    <i name="bandstr">    463.36703095 </i>
    <i name="atom">   3042.99389965 </i>
    <i name="e_fr_energy">   1354.89883729 </i>
    <i name="e_wo_entrp">   1354.89359282 </i>
    <i name="e_0_energy">   1354.89708913 </i>
   </energy>
  </scstep>
  <scstep>
   <time name="diag">    0.43    0.43</time>
   <time name="diis">    1.18    1.18</time>
   <time name="orth">    0.04    0.04</time>
   <time name="total">    1.65    1.65</time>
   <dipole>
    <v name="dipole">      0.00000000       0.00000000       0.00018639 </v>
    <i name="Tr[quadrupol]">   -403.65429543 </i>
    <i name="Echarged">      0.00000000 </i>
    <i name="Edipol_quadrupol">      0.00000000 </i>
    <i name="Eion">      0.00000000 </i>
   </dipole>
   <energy>
    <i name="e_fr_energy">    365.95527914 </i>
    <i name="e_wo_entrp">    365.96282040 </i>
    <i name="e_0_energy">    365.95779289 </i>
   </energy>
  </scstep>
  <scstep>
   <time name="diag">    0.43    0.43</time>
   <time name="diis">    1.20    1.20</time>
   <time name="orth">    0.04    0.04</time>
   <time name="total">    1.67    1.67</time>
   <dipole>
    <v name="dipole">      0.00000000       0.00000000       0.00018639 </v>
    <i name="Tr[quadrupol]">   -403.65429543 </i>
    <i name="Echarged">      0.00000000 </i>
    <i name="Edipol_quadrupol">      0.00000000 </i>
    <i name="Eion">      0.00000000 </i>
   </dipole>
   <energy>
    <i name="e_fr_energy">     55.78380670 </i>
    <i name="e_wo_entrp">     55.76445338 </i>
    <i name="e_0_energy">     55.77735560 </i>
   </energy>
  </scstep>
  <scstep>
   <time name="diag">    0.43    0.43</time>
   <time name="diis">    1.21    1.21</time>
   <time name="orth">    0.04    0.04</time>
   <time name="total">    1.68    1.68</time>
   <dipole>
    <v name="dipole">      0.00000000       0.00000000       0.00018639 </v>
    <i name="Tr[quadrupol]">   -403.65429543 </i>
    <i name="Echarged">      0.00000000 </i>
    <i name="Edipol_quadrupol">      0.00000000 </i>
    <i name="Eion">      0.00000000 </i>
   </dipole>
   <energy>
    <i name="e_fr_energy">   -119.81498650 </i>
    <i name="e_wo_entrp">   -119.81984114 </i>
    <i name="e_0_energy">   -119.81660472 </i>
   </energy>
  </scstep>
  <scstep>
   <time name="diag">    0.44    0.44</time>
   <time name="diis">    1.20    1.20</time>
   <time name="orth">    0.04    0.04</time>
   <time name="total">    1.68    1.68</time>
   <dipole>
    <v name="dipole">      0.00000000       0.00000000       0.00018639 </v>
    <i name="Tr[quadrupol]">   -403.65429543 </i>
    <i name="Echarged">      0.00000000 </i>
    <i name="Edipol_quadrupol">      0.00000000 </i>
    <i name="Eion">      0.00000000 </i>
   </dipole>
   <energy>
    <i name="e_fr_energy">   -176.50473726 </i>
    <i name="e_wo_entrp">   -176.50618674 </i>
    <i name="e_0_energy">   -176.50522042 </i>
   </energy>
  </scstep>
  <scstep>
   <time name="diag">    0.43    0.43</time>
   <time name="diis">    1.19    1.19</time>
   <time name="orth">    0.03    0.03</time>
   <time name="total">    1.65    1.66</time>
   <dipole>
    <v name="dipole">      0.00000000       0.00000000       0.00018639 </v>
    <i name="Tr[quadrupol]">   -403.65429543 </i>
    <i name="Echarged">      0.00000000 </i>
    <i name="Edipol_quadrupol">      0.00000000 </i>
    <i name="Eion">      0.00000000 </i>
   </dipole>
   <energy>
    <i name="e_fr_energy">   -196.10283702 </i>
    <i name="e_wo_entrp">   -196.10435268 </i>
    <i name="e_0_energy">   -196.10334224 </i>
   </energy>
  </scstep>
  <scstep>
   <time name="diag">    0.43    0.43</time>
   <time name="diis">    1.19    1.19</time>
   <time name="orth">    0.04    0.04</time>
   <time name="total">    1.66    1.66</time>
   <dipole>
    <v name="dipole">      0.00000000       0.00000000       0.00018639 </v>
    <i name="Tr[quadrupol]">   -403.65429543 </i>
    <i name="Echarged">      0.00000000 </i>
    <i name="Edipol_quadrupol">      0.00000000 </i>
    <i name="Eion">      0.00000000 </i>
   </dipole>
   <energy>
    <i name="e_fr_energy">   -202.50011846 </i>
    <i name="e_wo_entrp">   -202.50271554 </i>
    <i name="e_0_energy">   -202.50098415 </i>
   </energy>
  </scstep>
  <scstep>
   <time name="diag">    0.43    0.43</time>
   <time name="diis">    1.19    1.19</time>
   <time name="orth">    0.04    0.04</time>
   <time name="total">    1.66    1.66</time>
   <dipole>
    <v name="dipole">      0.00000000       0.00000000       0.00018639 </v>
    <i name="Tr[quadrupol]">   -403.65429543 </i>
    <i name="Echarged">      0.00000000 </i>
    <i name="Edipol_quadrupol">      0.00000000 </i>
    <i name="Eion">      0.00000000 </i>
   </dipole>
   <energy>
    <i name="e_fr_energy">   -204.91871678 </i>
    <i name="e_wo_entrp">   -204.92189259 </i>
    <i name="e_0_energy">   -204.91977538 </i>
   </energy>
  </scstep>
  <scstep>
   <time name="diag">    0.43    0.43</time>
   <time name="diis">    2.42    2.42</time>
   <time name="orth">    0.04    0.04</time>
   <time name="total">    2.89    2.89</time>
   <dipole>
    <v name="dipole">      0.00000000       0.00000000       0.00018639 </v>
    <i name="Tr[quadrupol]">   -403.65429543 </i>
    <i name="Echarged">      0.00000000 </i>
    <i name="Edipol_quadrupol">      0.00000000 </i>
    <i name="Eion">      0.00000000 </i>
   </dipole>
   <energy>
    <i name="e_fr_energy">   -206.20769771 </i>
    <i name="e_wo_entrp">   -206.21091388 </i>
    <i name="e_0_energy">   -206.20876976 </i>
   </energy>
  </scstep>
  <scstep>
   <time name="diag">    0.44    0.44</time>
   <time name="diis">    2.61    2.61</time>
   <time name="orth">    0.04    0.04</time>
   <time name="total">    3.09    3.09</time>
   <dipole>
    <v name="dipole">      0.00000000       0.00000000       0.00018639 </v>
    <i name="Tr[quadrupol]">   -403.65429543 </i>
    <i name="Echarged">      0.00000000 </i>
    <i name="Edipol_quadrupol">      0.00000000 </i>
    <i name="Eion">      0.00000000 </i>
   </dipole>
   <energy>
    <i name="e_fr_energy">   -206.51904271 </i>
    <i name="e_wo_entrp">   -206.52197141 </i>
    <i name="e_0_energy">   -206.52001895 </i>
   </energy>
  </scstep>
  <scstep>
   <time name="diag">    0.44    0.44</time>
   <time name="diis">    2.70    2.70</time>
   <time name="orth">    0.03    0.03</time>
   <time name="total">    3.17    3.17</time>
   <dipole>
    <v name="dipole">      0.00000000       0.00000000       0.00018639 </v>
    <i name="Tr[quadrupol]">   -403.65429543 </i>
    <i name="Echarged">      0.00000000 </i>
    <i name="Edipol_quadrupol">      0.00000000 </i>
    <i name="Eion">      0.00000000 </i>
   </dipole>
   <energy>
    <i name="e_fr_energy">   -206.55406218 </i>
    <i name="e_wo_entrp">   -206.55699059 </i>
    <i name="e_0_energy">   -206.55503832 </i>
   </energy>
  </scstep>
  <scstep>
   <time name="diag">    0.43    0.43</time>
   <time name="diis">    2.87    2.87</time>
   <time name="orth">    0.04    0.04</time>
   <time name="total">    3.43    3.44</time>
   <dipole>
    <v name="dipole">      0.00000000       0.00000000       0.00018639 </v>
    <i name="Tr[quadrupol]">   -403.65429543 </i>
    <i name="Echarged">      0.00000000 </i>
    <i name="Edipol_quadrupol">      0.00000000 </i>
    <i name="Eion">      0.00000000 </i>
   </dipole>
   <energy>
    <i name="e_fr_energy">   -206.55556846 </i>
    <i name="e_wo_entrp">   -206.55849711 </i>
    <i name="e_0_energy">   -206.55654468 </i>
   </energy>
  </scstep>
  <scstep>
   <time name="diag">    0.43    0.43</time>
   <time name="diis">    2.70    2.70</time>
   <time name="orth">    0.04    0.04</time>
   <time name="total">    3.37    3.37</time>
   <dipole>
    <v name="dipole">      0.00000000       0.00000000       0.05247252 </v>
    <i name="Tr[quadrupol]">   -405.11273869 </i>
    <i name="Echarged">      0.00000000 </i>
    <i name="Edipol_quadrupol">      0.00000000 </i>
    <i name="Eion">      0.00000000 </i>
   </dipole>
   <energy>
    <i name="e_fr_energy">   -199.25425515 </i>
    <i name="e_wo_entrp">   -199.25717048 </i>
    <i name="e_0_energy">   -199.25522692 </i>
   </energy>
  </scstep>
  <scstep>
   <time name="diag">    0.46    0.46</time>
   <time name="diis">    3.47    3.47</time>
   <time name="orth">    0.04    0.04</time>
   <time name="total">    4.17    4.17</time>
   <dipole>
    <v name="dipole">      0.00000000       0.00000000       0.28200987 </v>
    <i name="Tr[quadrupol]">   -408.99202699 </i>
    <i name="Echarged">      0.00000000 </i>
    <i name="Edipol_quadrupol">      0.00000000 </i>
    <i name="Eion">      0.00000000 </i>
   </dipole>
   <energy>
    <i name="e_fr_energy">   -191.55397441 </i>
    <i name="e_wo_entrp">   -191.55790308 </i>
    <i name="e_0_energy">   -191.55528397 </i>
   </energy>
  </scstep>
  <scstep>
   <time name="diag">    0.43    0.43</time>
   <time name="diis">    2.66    2.66</time>
   <time name="orth">    0.03    0.03</time>
   <time name="total">    3.33    3.33</time>
   <dipole>
    <v name="dipole">      0.00000000       0.00000000       0.39247133 </v>
    <i name="Tr[quadrupol]">   -408.83331467 </i>
    <i name="Echarged">      0.00000000 </i>
    <i name="Edipol_quadrupol">      0.00000000 </i>
    <i name="Eion">      0.00000000 </i>
   </dipole>
   <energy>
    <i name="e_fr_energy">   -191.18626333 </i>
    <i name="e_wo_entrp">   -191.19350460 </i>
    <i name="e_0_energy">   -191.18867708 </i>
   </energy>
  </scstep>
  <scstep>
   <time name="diag">    0.44    0.44</time>
   <time name="diis">    2.14    2.14</time>
   <time name="orth">    0.03    0.03</time>
   <time name="total">    2.82    2.82</time>
   <dipole>
    <v name="dipole">      0.00000000       0.00000000       0.41011807 </v>
    <i name="Tr[quadrupol]">   -409.27828627 </i>
    <i name="Echarged">      0.00000000 </i>
    <i name="Edipol_quadrupol">      0.00000000 </i>
    <i name="Eion">      0.00000000 </i>
   </dipole>
   <energy>
    <i name="e_fr_energy">   -191.06133903 </i>
    <i name="e_wo_entrp">   -191.06632619 </i>
    <i name="e_0_energy">   -191.06300142 </i>
   </energy>
  </scstep>
  <scstep>
   <time name="diag">    0.43    0.43</time>
   <time name="diis">    2.21    2.21</time>
   <time name="orth">    0.04    0.04</time>
   <time name="total">    2.88    2.88</time>
   <dipole>
    <v name="dipole">      0.00000000       0.00000000       0.39630064 </v>
    <i name="Tr[quadrupol]">   -409.57323007 </i>
    <i name="Echarged">      0.00000000 </i>
    <i name="Edipol_quadrupol">      0.00000000 </i>
    <i name="Eion">      0.00000000 </i>
   </dipole>
   <energy>
    <i name="e_fr_energy">   -191.08500383 </i>
    <i name="e_wo_entrp">   -191.08993529 </i>
    <i name="e_0_energy">   -191.08664765 </i>
   </energy>
  </scstep>
  <scstep>
   <time name="diag">    0.45    0.45</time>
   <time name="diis">    2.16    2.16</time>
   <time name="orth">    0.03    0.03</time>
   <time name="total">    2.85    2.85</time>
   <dipole>
    <v name="dipole">      0.00000000       0.00000000       0.41422533 </v>
    <i name="Tr[quadrupol]">   -409.50411836 </i>
    <i name="Echarged">      0.00000000 </i>
    <i name="Edipol_quadrupol">      0.00000000 </i>
    <i name="Eion">      0.00000000 </i>
   </dipole>
   <energy>
    <i name="e_fr_energy">   -191.05611208 </i>
    <i name="e_wo_entrp">   -191.06129334 </i>
    <i name="e_0_energy">   -191.05783917 </i>
   </energy>
  </scstep>
  <scstep>
   <time name="diag">    0.44    0.44</time>
   <time name="diis">    2.19    2.19</time>
   <time name="orth">    0.03    0.03</time>
   <time name="total">    2.86    2.86</time>
   <dipole>
    <v name="dipole">      0.00000000       0.00000000       0.42859705 </v>
    <i name="Tr[quadrupol]">   -409.50137564 </i>
    <i name="Echarged">      0.00000000 </i>
    <i name="Edipol_quadrupol">      0.00000000 </i>
    <i name="Eion">      0.00000000 </i>
   </dipole>
   <energy>
    <i name="e_fr_energy">   -191.05682882 </i>
    <i name="e_wo_entrp">   -191.06202608 </i>
    <i name="e_0_energy">   -191.05856124 </i>
   </energy>
  </scstep>
  <scstep>
   <time name="diag">    0.43    0.43</time>
   <time name="diis">    2.17    2.17</time>
   <time name="orth">    0.04    0.04</time>
   <time name="total">    2.84    2.85</time>
   <dipole>
    <v name="dipole">      0.00000000       0.00000000       0.43544224 </v>
    <i name="Tr[quadrupol]">   -410.14824414 </i>
    <i name="Echarged">      0.00000000 </i>
    <i name="Edipol_quadrupol">      0.00000000 </i>
    <i name="Eion">      0.00000000 </i>
   </dipole>
   <energy>
    <i name="e_fr_energy">   -191.05714244 </i>
    <i name="e_wo_entrp">   -191.06233700 </i>
    <i name="e_0_energy">   -191.05887396 </i>
   </energy>
  </scstep>
  <scstep>
   <time name="diag">    0.43    0.43</time>
   <time name="diis">    2.30    2.30</time>
   <time name="orth">    0.04    0.04</time>
   <time name="total">    2.98    2.98</time>
   <dipole>
    <v name="dipole">      0.00000000       0.00000000       0.43433584 </v>
    <i name="Tr[quadrupol]">   -410.38973345 </i>
    <i name="Echarged">      0.00000000 </i>
    <i name="Edipol_quadrupol">      0.00000000 </i>
    <i name="Eion">      0.00000000 </i>
   </dipole>
   <energy>
    <i name="e_fr_energy">   -191.05740484 </i>
    <i name="e_wo_entrp">   -191.06259922 </i>
    <i name="e_0_energy">   -191.05913630 </i>
   </energy>
  </scstep>
  <scstep>
   <time name="diag">    0.43    0.43</time>
   <time name="diis">    2.15    2.15</time>
   <time name="orth">    0.04    0.04</time>
   <time name="total">    2.82    2.82</time>
   <dipole>
    <v name="dipole">      0.00000000       0.00000000       0.43964532 </v>
    <i name="Tr[quadrupol]">   -410.53329087 </i>
    <i name="Echarged">      0.00000000 </i>
    <i name="Edipol_quadrupol">      0.00000000 </i>
    <i name="Eion">      0.00000000 </i>
   </dipole>
   <energy>
    <i name="e_fr_energy">   -191.05726716 </i>
    <i name="e_wo_entrp">   -191.06246766 </i>
    <i name="e_0_energy">   -191.05900066 </i>
   </energy>
  </scstep>
  <scstep>
   <time name="diag">    0.43    0.43</time>
   <time name="diis">    2.15    2.15</time>
   <time name="orth">    0.04    0.04</time>
   <time name="total">    2.83    2.83</time>
   <dipole>
    <v name="dipole">      0.00000000       0.00000000       0.45461880 </v>
    <i name="Tr[quadrupol]">   -410.52852598 </i>
    <i name="Echarged">      0.00000000 </i>
    <i name="Edipol_quadrupol">      0.00000000 </i>
    <i name="Eion">      0.00000000 </i>
   </dipole>
   <energy>
    <i name="e_fr_energy">   -191.05732636 </i>
    <i name="e_wo_entrp">   -191.06252856 </i>
    <i name="e_0_energy">   -191.05906042 </i>
   </energy>
  </scstep>
  <scstep>
   <time name="diag">    0.43    0.43</time>
   <time name="diis">    2.31    2.31</time>
   <time name="orth">    0.04    0.04</time>
   <time name="total">    3.00    3.00</time>
   <dipole>
    <v name="dipole">      0.00000000       0.00000000       0.45520908 </v>
    <i name="Tr[quadrupol]">   -410.52971863 </i>
    <i name="Echarged">      0.00000000 </i>
    <i name="Edipol_quadrupol">      0.00000000 </i>
    <i name="Eion">      0.00000000 </i>
   </dipole>
   <energy>
    <i name="e_fr_energy">   -191.05737978 </i>
    <i name="e_wo_entrp">   -191.06258174 </i>
    <i name="e_0_energy">   -191.05911377 </i>
   </energy>
  </scstep>
  <scstep>
   <time name="diag">    0.43    0.43</time>
   <time name="diis">    2.12    2.12</time>
   <time name="orth">    0.04    0.04</time>
   <time name="total">    2.81    2.81</time>
   <dipole>
    <v name="dipole">      0.00000000       0.00000000       0.45549392 </v>
    <i name="Tr[quadrupol]">   -410.47008363 </i>
    <i name="Echarged">      0.00000000 </i>
    <i name="Edipol_quadrupol">      0.00000000 </i>
    <i name="Eion">      0.00000000 </i>
   </dipole>
   <energy>
    <i name="e_fr_energy">   -191.05735160 </i>
    <i name="e_wo_entrp">   -191.06255385 </i>
    <i name="e_0_energy">   -191.05908568 </i>
   </energy>
  </scstep>
  <scstep>
   <time name="diag">    0.43    0.43</time>
   <time name="diis">    2.24    2.24</time>
   <time name="orth">    0.04    0.04</time>
   <time name="total">    2.92    2.92</time>
   <dipole>
    <v name="dipole">      0.00000000       0.00000000       0.45544517 </v>
    <i name="Tr[quadrupol]">   -410.41406752 </i>
    <i name="Echarged">      0.00000000 </i>
    <i name="Edipol_quadrupol">      0.00000000 </i>
    <i name="Eion">      0.00000000 </i>
   </dipole>
   <energy>
    <i name="e_fr_energy">   -191.05734365 </i>
    <i name="e_wo_entrp">   -191.06254597 </i>
    <i name="e_0_energy">   -191.05907775 </i>
   </energy>
  </scstep>
  <scstep>
   <time name="diag">    0.44    0.44</time>
   <time name="diis">    2.13    2.13</time>
   <time name="orth">    0.04    0.04</time>
   <time name="total">    2.82    2.82</time>
   <dipole>
    <v name="dipole">      0.00000000       0.00000000       0.45563863 </v>
    <i name="Tr[quadrupol]">   -410.35255568 </i>
    <i name="Echarged">      0.00000000 </i>
    <i name="Edipol_quadrupol">      0.00000000 </i>
    <i name="Eion">      0.00000000 </i>
   </dipole>
   <energy>
    <i name="e_fr_energy">   -191.05734937 </i>
    <i name="e_wo_entrp">   -191.06255168 </i>
    <i name="e_0_energy">   -191.05908347 </i>
   </energy>
  </scstep>
  <scstep>
   <time name="diag">    0.44    0.44</time>
   <time name="diis">    2.12    2.12</time>
   <time name="orth">    0.04    0.04</time>
   <time name="total">    2.82    2.82</time>
   <dipole>
    <v name="dipole">      0.00000000       0.00000000       0.45700987 </v>
    <i name="Tr[quadrupol]">   -410.29194312 </i>
    <i name="Echarged">      0.00000000 </i>
    <i name="Edipol_quadrupol">      0.00000000 </i>
    <i name="Eion">      0.00000000 </i>
   </dipole>
   <energy>
    <i name="e_fr_energy">   -191.05736714 </i>
    <i name="e_wo_entrp">   -191.06256897 </i>
    <i name="e_0_energy">   -191.05910108 </i>
   </energy>
  </scstep>
  <scstep>
   <time name="diag">    0.43    0.43</time>
   <time name="diis">    2.06    2.06</time>
   <time name="orth">    0.04    0.04</time>
   <time name="total">    2.74    2.75</time>
   <dipole>
    <v name="dipole">      0.00000000       0.00000000       0.45783378 </v>
    <i name="Tr[quadrupol]">   -410.23100549 </i>
    <i name="Echarged">      0.00000000 </i>
    <i name="Edipol_quadrupol">      0.00000000 </i>
    <i name="Eion">      0.00000000 </i>
   </dipole>
   <energy>
    <i name="e_fr_energy">   -191.05739200 </i>
    <i name="e_wo_entrp">   -191.06259369 </i>
    <i name="e_0_energy">   -191.05912590 </i>
   </energy>
  </scstep>
  <scstep>
   <time name="diag">    0.43    0.43</time>
   <time name="diis">    1.57    1.57</time>
   <time name="orth">    0.04    0.04</time>
   <time name="total">    2.26    2.26</time>
   <dipole>
    <v name="dipole">      0.00000000       0.00000000       0.45840604 </v>
    <i name="Tr[quadrupol]">   -410.23281003 </i>
    <i name="Echarged">      0.00000000 </i>
    <i name="Edipol_quadrupol">      0.00000000 </i>
    <i name="Eion">      0.00000000 </i>
   </dipole>
   <energy>
    <i name="e_fr_energy">   -191.05740363 </i>
    <i name="e_wo_entrp">   -191.06260536 </i>
    <i name="e_0_energy">   -191.05913754 </i>
   </energy>
  </scstep>
  <scstep>
   <time name="diag">    0.43    0.43</time>
   <time name="diis">    1.48    1.48</time>
   <time name="orth">    0.04    0.04</time>
   <time name="total">    2.16    2.16</time>
   <dipole>
    <v name="dipole">      0.00000000       0.00000000       0.45875494 </v>
    <i name="Tr[quadrupol]">   -410.23362673 </i>
    <i name="Echarged">      0.00000000 </i>
    <i name="Edipol_quadrupol">      0.00000000 </i>
    <i name="Eion">      0.00000000 </i>
   </dipole>
   <energy>
    <i name="e_fr_energy">   -191.05740630 </i>
    <i name="e_wo_entrp">   -191.06260814 </i>
    <i name="e_0_energy">   -191.05914025 </i>
   </energy>
  </scstep>
  <scstep>
   <time name="diag">    0.43    0.43</time>
   <time name="diis">    1.49    1.49</time>
   <time name="orth">    0.04    0.04</time>
   <time name="total">    2.18    2.18</time>
   <dipole>
    <v name="dipole">      0.00000000       0.00000000       0.45897295 </v>
    <i name="Tr[quadrupol]">   -410.29593521 </i>
    <i name="Echarged">      0.00000000 </i>
    <i name="Edipol_quadrupol">      0.00000000 </i>
    <i name="Eion">      0.00000000 </i>
   </dipole>
   <energy>
    <i name="e_fr_energy">   -191.05740454 </i>
    <i name="e_wo_entrp">   -191.06260633 </i>
    <i name="e_0_energy">   -191.05913847 </i>
   </energy>
  </scstep>
  <scstep>
   <time name="diag">    0.44    0.44</time>
   <time name="diis">    1.51    1.51</time>
   <time name="orth">    0.04    0.04</time>
   <time name="total">    2.20    2.20</time>
   <dipole>
    <v name="dipole">      0.00000000       0.00000000       0.45909494 </v>
    <i name="Tr[quadrupol]">   -410.35841519 </i>
    <i name="Echarged">      0.00000000 </i>
    <i name="Edipol_quadrupol">      0.00000000 </i>
    <i name="Eion">      0.00000000 </i>
   </dipole>
   <energy>
    <i name="e_fr_energy">   -191.05740286 </i>
    <i name="e_wo_entrp">   -191.06260468 </i>
    <i name="e_0_energy">   -191.05913680 </i>
   </energy>
  </scstep>
  <scstep>
   <time name="diag">    0.43    0.43</time>
   <time name="diis">    1.41    1.41</time>
   <time name="orth">    0.04    0.04</time>
   <time name="total">    2.10    2.10</time>
   <dipole>
    <v name="dipole">      0.00000000       0.00000000       0.45908952 </v>
    <i name="Tr[quadrupol]">   -410.42046098 </i>
    <i name="Echarged">      0.00000000 </i>
    <i name="Edipol_quadrupol">      0.00000000 </i>
    <i name="Eion">      0.00000000 </i>
   </dipole>
   <energy>
    <i name="e_fr_energy">   -191.05740020 </i>
    <i name="e_wo_entrp">   -191.06260206 </i>
    <i name="e_0_energy">   -191.05913415 </i>
   </energy>
  </scstep>
  <scstep>
   <time name="diag">    0.43    0.43</time>
   <time name="diis">    1.16    1.16</time>
   <time name="orth">    0.04    0.04</time>
   <time name="total">    1.74    1.74</time>
   <dipole>
    <v name="dipole">      0.00000000       0.00000000       0.45907627 </v>
    <i name="Tr[quadrupol]">   -410.42053781 </i>
    <i name="Echarged">      0.00000000 </i>
    <i name="Edipol_quadrupol">      0.00000000 </i>
    <i name="Eion">      0.00000000 </i>
   </dipole>
   <energy>
    <i name="alphaZ">    101.31856925 </i>
    <i name="ewald">  12596.32655686 </i>
    <i name="hartreedc"> -15497.10074686 </i>
    <i name="XCdc">    307.63799082 </i>
    <i name="pawpsdc">   8516.20157833 </i>
    <i name="pawaedc">  -8530.18134898 </i>
    <i name="eentropy">      0.00520185 </i>
    <i name="bandstr">   -728.25910120 </i>
    <i name="atom">   3042.99389965 </i>
    <i name="e_fr_energy">   -191.05740027 </i>
    <i name="e_wo_entrp">   -191.06260212 </i>
    <i name="e_0_energy">   -191.05913422 </i>
   </energy>
  </scstep>
  <structure>
   <crystal>
    <varray name="basis" >
     <v>       5.05260000       0.00000000       0.00000000 </v>
     <v>       0.00000000       5.05260000       0.00000000 </v>
     <v>       0.00000000       0.00000000      14.57270000 </v>
    </varray>
    <i name="volume">    372.02305936 </i>
    <varray name="rec_basis" >
     <v>       0.19791790       0.00000000       0.00000000 </v>
     <v>       0.00000000       0.19791790       0.00000000 </v>
     <v>       0.00000000       0.00000000       0.06862146 </v>
    </varray>
   </crystal>
   <varray name="positions" >
    <v>       1.00000000       0.00000000       0.19116364 </v>
    <v>       0.25000000       0.25000000       0.06862000 </v>
    <v>       0.25000000       0.35534278       0.28853100 </v>
    <v>       0.25000000       0.00000000       0.13181645 </v>
    <v>       0.00000000       0.27827508       0.24078839 </v>
    <v>       0.00000000       0.50000000       0.18370063 </v>
    <v>       0.25000000       0.75000000       0.06862000 </v>
    <v>       0.25000000       0.64465722       0.28853100 </v>
    <v>       0.25000000       0.50000000       0.12990139 </v>
    <v>       0.00000000       0.72172492       0.24078839 </v>
    <v>       0.50000000       1.00000000       0.19116364 </v>
    <v>       0.75000000       0.25000000       0.06862000 </v>
    <v>       0.75000000       0.35534278       0.28853100 </v>
    <v>       0.75000000       0.00000000       0.13181645 </v>
    <v>       0.50000000       0.27827508       0.24078839 </v>
    <v>       0.50000000       0.50000000       0.18370063 </v>
    <v>       0.75000000       0.75000000       0.06862000 </v>
    <v>       0.75000000       0.64465722       0.28853100 </v>
    <v>       0.75000000       0.50000000       0.12990139 </v>
    <v>       0.50000000       0.72172492       0.24078839 </v>
    <v>       0.39214934       0.25000000       0.01612382 </v>
    <v>       0.10785066       0.25000000       0.01612382 </v>
    <v>       0.39214934       0.75000000       0.01612382 </v>
    <v>       0.10785066       0.75000000       0.01612382 </v>
    <v>       0.89214934       0.25000000       0.01612382 </v>
    <v>       0.60785066       0.25000000       0.01612382 </v>
    <v>       0.89214934       0.75000000       0.01612382 </v>
    <v>       0.60785066       0.75000000       0.01612382 </v>
   </varray>
  </structure>
  <varray name="forces" >
   <v>      -0.00000183      -0.00000302       0.06667605 </v>
   <v>      -0.00000251      -0.07706456       1.11029319 </v>
   <v>      -0.00000429       3.23857494       1.99483712 </v>
   <v>      -0.00000662      -0.00000050      -3.32510059 </v>
   <v>       0.00000057      -4.95222542       4.97511632 </v>
   <v>      -0.00000232      -0.00000087      -7.28569338 </v>
   <v>      -0.00000108       0.07706443       1.11029499 </v>
   <v>      -0.00000360      -3.23857020       1.99483176 </v>
   <v>      -0.00000120       0.00000328      -6.84132410 </v>
   <v>       0.00000318       4.95222870       4.97511857 </v>
   <v>       0.00000262      -0.00000100       0.06667873 </v>
   <v>       0.00000594      -0.07706492       1.11029167 </v>
   <v>       0.00000177       3.23857486       1.99483592 </v>
   <v>       0.00000682      -0.00000736      -3.32509751 </v>
   <v>      -0.00000263      -4.95222939       4.97512750 </v>
   <v>       0.00000224       0.00000148      -7.28569612 </v>
   <v>       0.00000320       0.07706652       1.11029477 </v>
   <v>       0.00000021      -3.23858321       1.99483913 </v>
   <v>       0.00000209       0.00000602      -6.84132423 </v>
   <v>      -0.00000131       4.95223067       4.97512705 </v>
   <v>      -0.14138971      -0.08276864       0.30612428 </v>
   <v>       0.14138945      -0.08276723       0.30612450 </v>
   <v>      -0.14138944       0.08276841       0.30612459 </v>
   <v>       0.14138879       0.08276832       0.30612381 </v>
   <v>      -0.14138459      -0.08276774       0.30611865 </v>
   <v>       0.14138476      -0.08276971       0.30611681 </v>
   <v>      -0.14138945       0.08276866       0.30612487 </v>
   <v>       0.14138950       0.08276813       0.30612292 </v>
  </varray>
  <varray name="stress" >
   <v>     342.34647832      -0.00000885       0.00000162 </v>
   <v>      -0.00000887     -16.62498579      -0.00000297 </v>
   <v>       0.00000161      -0.00000298     132.87375027 </v>
  </varray>
  <energy>
   <i name="e_fr_energy">   -194.32656543 </i>
   <i name="e_wo_entrp">   -194.33176728 </i>
   <i name="e_0_energy">   -194.32829938 </i>
   <i name="kinetic">      0.78856740 </i>
   <i name="lattice kinetic">      0.00000000 </i>
   <i name="nosepot">      0.00000000 </i>
   <i name="nosekinetic">      0.00000000 </i>
   <i name="total">   -193.53799803 </i>
  </energy>
  <time name="totalsc">   94.61   94.62</time>
 </calculation>
 <calculation>
  <scstep>
   <time name="diag">    0.43    0.43</time>
   <time name="diis">    2.14    2.14</time>
   <time name="orth">    0.04    0.04</time>
   <time name="total">    2.83    2.83</time>
   <dipole>
    <v name="dipole">      0.00000000       0.00000000       0.45905349 </v>
    <i name="Tr[quadrupol]">   -409.18775708 </i>
    <i name="Echarged">      0.00000000 </i>
    <i name="Edipol_quadrupol">      0.00000000 </i>
    <i name="Eion">      0.00000000 </i>
   </dipole>
   <energy>
    <i name="alphaZ">    101.28859536 </i>
    <i name="ewald">  12584.01658300 </i>
    <i name="hartreedc"> -15485.38666566 </i>
    <i name="XCdc">    307.58232295 </i>
    <i name="pawpsdc">   8516.19719897 </i>
    <i name="pawaedc">  -8530.17697659 </i>
    <i name="eentropy">      0.00513491 </i>
    <i name="bandstr">   -727.65272731 </i>
    <i name="atom">   3042.99389965 </i>
    <i name="e_fr_energy">   -191.13263472 </i>
    <i name="e_wo_entrp">   -191.13776963 </i>
    <i name="e_0_energy">   -191.13434636 </i>
   </energy>
  </scstep>
  <scstep>
   <time name="diag">    0.43    0.43</time>
   <time name="diis">    2.20    2.20</time>
   <time name="orth">    0.04    0.04</time>
   <time name="total">    2.88    2.88</time>
   <dipole>
    <v name="dipole">      0.00000000       0.00000000       0.45789725 </v>
    <i name="Tr[quadrupol]">   -409.18469501 </i>
    <i name="Echarged">      0.00000000 </i>
    <i name="Edipol_quadrupol">      0.00000000 </i>
    <i name="Eion">      0.00000000 </i>
   </dipole>
   <energy>
    <i name="e_fr_energy">   -191.15330840 </i>
    <i name="e_wo_entrp">   -191.15844154 </i>
    <i name="e_0_energy">   -191.15501944 </i>
   </energy>
  </scstep>
  <scstep>
   <time name="diag">    0.43    0.43</time>
   <time name="diis">    2.22    2.22</time>
   <time name="orth">    0.04    0.04</time>
   <time name="total">    2.91    2.91</time>
   <dipole>
    <v name="dipole">      0.00000000       0.00000000       0.45929368 </v>
    <i name="Tr[quadrupol]">   -409.18198416 </i>
    <i name="Echarged">      0.00000000 </i>
    <i name="Edipol_quadrupol">      0.00000000 </i>
    <i name="Eion">      0.00000000 </i>
   </dipole>
   <energy>
    <i name="e_fr_energy">   -191.15519073 </i>
    <i name="e_wo_entrp">   -191.16032816 </i>
    <i name="e_0_energy">   -191.15690321 </i>
   </energy>
  </scstep>
  <scstep>
   <time name="diag">    0.43    0.43</time>
   <time name="diis">    2.12    2.13</time>
   <time name="orth">    0.04    0.04</time>
   <time name="total">    2.81    2.81</time>
   <dipole>
    <v name="dipole">      0.00000000       0.00000000       0.46227353 </v>
    <i name="Tr[quadrupol]">   -409.17751671 </i>
    <i name="Echarged">      0.00000000 </i>
    <i name="Edipol_quadrupol">      0.00000000 </i>
    <i name="Eion">      0.00000000 </i>
   </dipole>
   <energy>
    <i name="e_fr_energy">   -191.15312265 </i>
    <i name="e_wo_entrp">   -191.15827429 </i>
    <i name="e_0_energy">   -191.15483986 </i>
   </energy>
  </scstep>
  <scstep>
   <time name="diag">    0.43    0.43</time>
   <time name="diis">    2.19    2.20</time>
   <time name="orth">    0.04    0.04</time>
   <time name="total">    2.88    2.88</time>
   <dipole>
    <v name="dipole">      0.00000000       0.00000000       0.46253730 </v>
    <i name="Tr[quadrupol]">   -409.17685875 </i>
    <i name="Echarged">      0.00000000 </i>
    <i name="Edipol_quadrupol">      0.00000000 </i>
    <i name="Eion">      0.00000000 </i>
   </dipole>
   <energy>
    <i name="e_fr_energy">   -191.15324726 </i>
    <i name="e_wo_entrp">   -191.15840060 </i>
    <i name="e_0_energy">   -191.15496504 </i>
   </energy>
  </scstep>
  <scstep>
   <time name="diag">    0.48    0.48</time>
   <time name="diis">    2.21    2.21</time>
   <time name="orth">    0.04    0.04</time>
   <time name="total">    2.94    2.94</time>
   <dipole>
    <v name="dipole">      0.00000000       0.00000000       0.46061553 </v>
    <i name="Tr[quadrupol]">   -409.18006402 </i>
    <i name="Echarged">      0.00000000 </i>
    <i name="Edipol_quadrupol">      0.00000000 </i>
    <i name="Eion">      0.00000000 </i>
   </dipole>
   <energy>
    <i name="e_fr_energy">   -191.15322296 </i>
    <i name="e_wo_entrp">   -191.15836887 </i>
    <i name="e_0_energy">   -191.15493826 </i>
   </energy>
  </scstep>
  <scstep>
   <time name="diag">    0.42    0.42</time>
   <time name="diis">    2.40    2.40</time>
   <time name="orth">    0.04    0.04</time>
   <time name="total">    3.08    3.08</time>
   <dipole>
    <v name="dipole">      0.00000000       0.00000000       0.46078322 </v>
    <i name="Tr[quadrupol]">   -409.18057696 </i>
    <i name="Echarged">      0.00000000 </i>
    <i name="Edipol_quadrupol">      0.00000000 </i>
    <i name="Eion">      0.00000000 </i>
   </dipole>
   <energy>
    <i name="e_fr_energy">   -191.15324385 </i>
    <i name="e_wo_entrp">   -191.15838969 </i>
    <i name="e_0_energy">   -191.15495913 </i>
   </energy>
  </scstep>
  <scstep>
   <time name="diag">    0.43    0.43</time>
   <time name="diis">    2.39    2.39</time>
   <time name="orth">    0.04    0.04</time>
   <time name="total">    3.08    3.08</time>
   <dipole>
    <v name="dipole">      0.00000000       0.00000000       0.46142872 </v>
    <i name="Tr[quadrupol]">   -409.17980506 </i>
    <i name="Echarged">      0.00000000 </i>
    <i name="Edipol_quadrupol">      0.00000000 </i>
    <i name="Eion">      0.00000000 </i>
   </dipole>
   <energy>
    <i name="e_fr_energy">   -191.15324651 </i>
    <i name="e_wo_entrp">   -191.15839486 </i>
    <i name="e_0_energy">   -191.15496263 </i>
   </energy>
  </scstep>
  <scstep>
   <time name="diag">    0.43    0.43</time>
   <time name="diis">    2.12    2.12</time>
   <time name="orth">    0.04    0.04</time>
   <time name="total">    2.80    2.80</time>
   <dipole>
    <v name="dipole">      0.00000000       0.00000000       0.46117478 </v>
    <i name="Tr[quadrupol]">   -409.18032585 </i>
    <i name="Echarged">      0.00000000 </i>
    <i name="Edipol_quadrupol">      0.00000000 </i>
    <i name="Eion">      0.00000000 </i>
   </dipole>
   <energy>
    <i name="e_fr_energy">   -191.15324400 </i>
    <i name="e_wo_entrp">   -191.15839148 </i>
    <i name="e_0_energy">   -191.15495982 </i>
   </energy>
  </scstep>
  <scstep>
   <time name="diag">    0.43    0.43</time>
   <time name="diis">    1.86    1.86</time>
   <time name="orth">    0.04    0.04</time>
   <time name="total">    2.55    2.55</time>
   <dipole>
    <v name="dipole">      0.00000000       0.00000000       0.46104884 </v>
    <i name="Tr[quadrupol]">   -409.18012310 </i>
    <i name="Echarged">      0.00000000 </i>
    <i name="Edipol_quadrupol">      0.00000000 </i>
    <i name="Eion">      0.00000000 </i>
   </dipole>
   <energy>
    <i name="e_fr_energy">   -191.15324218 </i>
    <i name="e_wo_entrp">   -191.15838967 </i>
    <i name="e_0_energy">   -191.15495801 </i>
   </energy>
  </scstep>
  <scstep>
   <time name="diag">    0.43    0.43</time>
   <time name="diis">    1.56    1.56</time>
   <time name="orth">    0.04    0.04</time>
   <time name="total">    2.14    2.14</time>
   <dipole>
    <v name="dipole">      0.00000000       0.00000000       0.46097807 </v>
    <i name="Tr[quadrupol]">   -409.17998669 </i>
    <i name="Echarged">      0.00000000 </i>
    <i name="Edipol_quadrupol">      0.00000000 </i>
    <i name="Eion">      0.00000000 </i>
   </dipole>
   <energy>
    <i name="alphaZ">    101.28637448 </i>
    <i name="ewald">  12584.01658300 </i>
    <i name="hartreedc"> -15484.96282367 </i>
    <i name="XCdc">    307.57884627 </i>
    <i name="pawpsdc">   8504.18661785 </i>
    <i name="pawaedc">  -8518.16107015 </i>
    <i name="eentropy">      0.00514769 </i>
    <i name="bandstr">   -728.09681724 </i>
    <i name="atom">   3042.99389965 </i>
    <i name="e_fr_energy">   -191.15324211 </i>
    <i name="e_wo_entrp">   -191.15838980 </i>
    <i name="e_0_energy">   -191.15495801 </i>
   </energy>
  </scstep>
  <structure>
   <crystal>
    <varray name="basis" >
     <v>       5.05260000       0.00000000       0.00000000 </v>
     <v>       0.00000000       5.05260000       0.00000000 </v>
     <v>       0.00000000       0.00000000      14.57270000 </v>
    </varray>
    <i name="volume">    372.02305936 </i>
    <varray name="rec_basis" >
     <v>       0.19791790       0.00000000       0.00000000 </v>
     <v>       0.00000000       0.19791790       0.00000000 </v>
     <v>       0.00000000       0.00000000       0.06862146 </v>
    </varray>
   </crystal>
   <varray name="positions" >
    <v>       0.00096252       0.99890664       0.19203930 </v>
    <v>       0.25000000       0.25000000       0.06862000 </v>
    <v>       0.24774921       0.35400875       0.28855263 </v>
    <v>       0.25243599       0.00069048       0.13238161 </v>
    <v>       0.00144659       0.27744391       0.24160442 </v>
    <v>       0.00153196       0.50070203       0.18323366 </v>
    <v>       0.25000000       0.75000000       0.06862000 </v>
    <v>       0.25197088       0.64321715       0.28792467 </v>
    <v>       0.24749154       0.49887429       0.12980586 </v>
    <v>       0.00086788       0.72514336       0.24069925 </v>
    <v>       0.49857453       0.00217593       0.19133567 </v>
    <v>       0.75000000       0.25000000       0.06862000 </v>
    <v>       0.75148319       0.35470977       0.28857741 </v>
    <v>       0.75110973       0.00261189       0.13159784 </v>
    <v>       0.50328942       0.28060615       0.24113594 </v>
    <v>       0.50035062       0.50051347       0.18370859 </v>
    <v>       0.75000000       0.75000000       0.06862000 </v>
    <v>       0.75010373       0.64588994       0.28896619 </v>
    <v>       0.74967371       0.50126203       0.12971168 </v>
    <v>       0.50062685       0.72026003       0.24147190 </v>
    <v>       0.39214934       0.25000000       0.01612382 </v>
    <v>       0.10785066       0.25000000       0.01612382 </v>
    <v>       0.39214934       0.75000000       0.01612382 </v>
    <v>       0.10785066       0.75000000       0.01612382 </v>
    <v>       0.89214934       0.25000000       0.01612382 </v>
    <v>       0.60785066       0.25000000       0.01612382 </v>
    <v>       0.89214934       0.75000000       0.01612382 </v>
    <v>       0.60785066       0.75000000       0.01612382 </v>
   </varray>
  </structure>
  <varray name="forces" >
   <v>      -0.00877725       0.48783090      -0.39306584 </v>
   <v>      -0.03701126      -0.14066339       1.15140788 </v>
   <v>       1.02616636       3.52400669       2.18122949 </v>
   <v>      -0.55115502      -0.09921555      -3.50915767 </v>
   <v>      -0.35779241      -4.49467122       4.21343188 </v>
   <v>      -0.67729388      -0.14212886      -6.37059691 </v>
   <v>       0.04361405       0.08904944       1.21113680 </v>
   <v>      -0.64886764      -3.12234684       2.26310630 </v>
   <v>       0.86476733       0.26462538      -6.84651694 </v>
   <v>      -0.01546569       3.91119605       4.96741948 </v>
   <v>       0.77261933      -0.24978116       0.17180658 </v>
   <v>       0.06785643       0.12211642       1.07128230 </v>
   <v>       0.02714593       3.59359843       2.15739013 </v>
   <v>      -0.19751689      -0.51281776      -2.98493099 </v>
   <v>      -0.79739702      -5.43347437       4.84741490 </v>
   <v>      -0.13358293      -0.00790347      -7.39699381 </v>
   <v>       0.01518318       0.31181553       1.07766260 </v>
   <v>       0.39109087      -3.41578827       1.86797672 </v>
   <v>       0.17153115      -0.14070286      -6.69243815 </v>
   <v>       0.05382991       5.44686128       4.56787061 </v>
   <v>      -0.13906407      -0.03979451       0.31978561 </v>
   <v>       0.13742672      -0.14585487       0.30962350 </v>
   <v>      -0.13850662       0.03270071       0.31213306 </v>
   <v>       0.13148895       0.15943672       0.31802968 </v>
   <v>      -0.14484188      -0.05590638       0.28961933 </v>
   <v>       0.14277275      -0.11229370       0.30633520 </v>
   <v>      -0.14179627       0.06424320       0.28900916 </v>
   <v>       0.14363162       0.10584863       0.29899268 </v>
  </varray>
  <varray name="stress" >
   <v>     343.23180274      -0.10561727      -0.01364907 </v>
   <v>      -0.10561727     -19.49927262       0.53897506 </v>
   <v>      -0.01364906       0.53897506     130.48480768 </v>
  </varray>
  <energy>
   <i name="e_fr_energy">   -194.42272031 </i>
   <i name="e_wo_entrp">   -194.42786801 </i>
   <i name="e_0_energy">   -194.42443621 </i>
   <i name="kinetic">      0.91936440 </i>
   <i name="lattice kinetic">      0.00000000 </i>
   <i name="nosepot">     -0.00003311 </i>
   <i name="nosekinetic">      0.00000094 </i>
   <i name="total">   -193.50338808 </i>
  </energy>
  <time name="totalsc">   36.10   36.11</time>
 </calculation>
 <calculation>
  <scstep>
   <time name="diag">    0.43    0.43</time>
   <time name="diis">    2.15    2.15</time>
   <time name="orth">    0.04    0.04</time>
   <time name="total">    2.84    2.84</time>
   <dipole>
    <v name="dipole">      0.00000000       0.00000000       0.46111122 </v>
    <i name="Tr[quadrupol]">   -408.01132511 </i>
    <i name="Echarged">      0.00000000 </i>
    <i name="Edipol_quadrupol">      0.00000000 </i>
    <i name="Eion">      0.00000000 </i>
   </dipole>
   <energy>
    <i name="alphaZ">    101.26736618 </i>
    <i name="ewald">  12538.25651525 </i>
    <i name="hartreedc"> -15441.75222244 </i>
    <i name="XCdc">    307.38899699 </i>
    <i name="pawpsdc">   8504.18140274 </i>
    <i name="pawaedc">  -8518.15586192 </i>
    <i name="eentropy">      0.00498676 </i>
    <i name="bandstr">   -726.02804806 </i>
    <i name="atom">   3042.99389965 </i>
    <i name="e_fr_energy">   -191.84296483 </i>
    <i name="e_wo_entrp">   -191.84795159 </i>
    <i name="e_0_energy">   -191.84462709 </i>
   </energy>
  </scstep>
  <scstep>
   <time name="diag">    0.43    0.43</time>
   <time name="diis">    2.20    2.20</time>
   <time name="orth">    0.04    0.04</time>
   <time name="total">    2.88    2.88</time>
   <dipole>
    <v name="dipole">      0.00000000       0.00000000       0.46613867 </v>
    <i name="Tr[quadrupol]">   -408.06963862 </i>
    <i name="Echarged">      0.00000000 </i>
    <i name="Edipol_quadrupol">      0.00000000 </i>
    <i name="Eion">      0.00000000 </i>
   </dipole>
   <energy>
    <i name="e_fr_energy">   -191.87503534 </i>
    <i name="e_wo_entrp">   -191.87999685 </i>
    <i name="e_0_energy">   -191.87668917 </i>
   </energy>
  </scstep>
  <scstep>
   <time name="diag">    0.43    0.43</time>
   <time name="diis">    2.24    2.24</time>
   <time name="orth">    0.04    0.04</time>
   <time name="total">    2.93    2.93</time>
   <dipole>
    <v name="dipole">      0.00000000       0.00000000       0.47062257 </v>
    <i name="Tr[quadrupol]">   -408.12371706 </i>
    <i name="Echarged">      0.00000000 </i>
    <i name="Edipol_quadrupol">      0.00000000 </i>
    <i name="Eion">      0.00000000 </i>
   </dipole>
   <energy>
    <i name="e_fr_energy">   -191.87661223 </i>
    <i name="e_wo_entrp">   -191.88155421 </i>
    <i name="e_0_energy">   -191.87825956 </i>
   </energy>
  </scstep>
  <scstep>
   <time name="diag">    0.43    0.43</time>
   <time name="diis">    2.16    2.16</time>
   <time name="orth">    0.04    0.04</time>
   <time name="total">    2.84    2.84</time>
   <dipole>
    <v name="dipole">      0.00000000       0.00000000       0.47228494 </v>
    <i name="Tr[quadrupol]">   -408.10686046 </i>
    <i name="Echarged">      0.00000000 </i>
    <i name="Edipol_quadrupol">      0.00000000 </i>
    <i name="Eion">      0.00000000 </i>
   </dipole>
   <energy>
    <i name="e_fr_energy">   -191.87315101 </i>
    <i name="e_wo_entrp">   -191.87807994 </i>
    <i name="e_0_energy">   -191.87479398 </i>
   </energy>
  </scstep>
  <scstep>
   <time name="diag">    0.50    0.50</time>
   <time name="diis">    2.31    2.31</time>
   <time name="orth">    0.04    0.04</time>
   <time name="total">    3.06    3.06</time>
   <dipole>
    <v name="dipole">      0.00000000       0.00000000       0.47039509 </v>
    <i name="Tr[quadrupol]">   -408.10655533 </i>
    <i name="Echarged">      0.00000000 </i>
    <i name="Edipol_quadrupol">      0.00000000 </i>
    <i name="Eion">      0.00000000 </i>
   </dipole>
   <energy>
    <i name="e_fr_energy">   -191.87348966 </i>
    <i name="e_wo_entrp">   -191.87841760 </i>
    <i name="e_0_energy">   -191.87513230 </i>
   </energy>
  </scstep>
  <scstep>
   <time name="diag">    0.43    0.43</time>
   <time name="diis">    2.23    2.23</time>
   <time name="orth">    0.04    0.04</time>
   <time name="total">    2.91    2.91</time>
   <dipole>
    <v name="dipole">      0.00000000       0.00000000       0.46757300 </v>
    <i name="Tr[quadrupol]">   -408.11669245 </i>
    <i name="Echarged">      0.00000000 </i>
    <i name="Edipol_quadrupol">      0.00000000 </i>
    <i name="Eion">      0.00000000 </i>
   </dipole>
   <energy>
    <i name="e_fr_energy">   -191.87335982 </i>
    <i name="e_wo_entrp">   -191.87830109 </i>
    <i name="e_0_energy">   -191.87500691 </i>
   </energy>
  </scstep>
  <scstep>
   <time name="diag">    0.45    0.45</time>
   <time name="diis">    2.27    2.27</time>
   <time name="orth">    0.04    0.04</time>
   <time name="total">    2.97    2.97</time>
   <dipole>
    <v name="dipole">      0.00000000       0.00000000       0.46798795 </v>
    <i name="Tr[quadrupol]">   -408.11646883 </i>
    <i name="Echarged">      0.00000000 </i>
    <i name="Edipol_quadrupol">      0.00000000 </i>
    <i name="Eion">      0.00000000 </i>
   </dipole>
   <energy>
    <i name="e_fr_energy">   -191.87339609 </i>
    <i name="e_wo_entrp">   -191.87833897 </i>
    <i name="e_0_energy">   -191.87504371 </i>
   </energy>
  </scstep>
  <scstep>
   <time name="diag">    0.48    0.49</time>
   <time name="diis">    2.33    2.33</time>
   <time name="orth">    0.04    0.04</time>
   <time name="total">    3.07    3.07</time>
   <dipole>
    <v name="dipole">      0.00000000       0.00000000       0.46885113 </v>
    <i name="Tr[quadrupol]">   -408.11683400 </i>
    <i name="Echarged">      0.00000000 </i>
    <i name="Edipol_quadrupol">      0.00000000 </i>
    <i name="Eion">      0.00000000 </i>
   </dipole>
   <energy>
    <i name="e_fr_energy">   -191.87338025 </i>
    <i name="e_wo_entrp">   -191.87832230 </i>
    <i name="e_0_energy">   -191.87502760 </i>
   </energy>
  </scstep>
  <scstep>
   <time name="diag">    0.45    0.45</time>
   <time name="diis">    2.15    2.15</time>
   <time name="orth">    0.04    0.04</time>
   <time name="total">    2.87    2.87</time>
   <dipole>
    <v name="dipole">      0.00000000       0.00000000       0.46820503 </v>
    <i name="Tr[quadrupol]">   -408.05612924 </i>
    <i name="Echarged">      0.00000000 </i>
    <i name="Edipol_quadrupol">      0.00000000 </i>
    <i name="Eion">      0.00000000 </i>
   </dipole>
   <energy>
    <i name="e_fr_energy">   -191.87339004 </i>
    <i name="e_wo_entrp">   -191.87833196 </i>
    <i name="e_0_energy">   -191.87503735 </i>
   </energy>
  </scstep>
  <scstep>
   <time name="diag">    0.44    0.44</time>
   <time name="diis">    2.05    2.05</time>
   <time name="orth">    0.04    0.04</time>
   <time name="total">    2.76    2.76</time>
   <dipole>
    <v name="dipole">      0.00000000       0.00000000       0.46791370 </v>
    <i name="Tr[quadrupol]">   -408.05511173 </i>
    <i name="Echarged">      0.00000000 </i>
    <i name="Edipol_quadrupol">      0.00000000 </i>
    <i name="Eion">      0.00000000 </i>
   </dipole>
   <energy>
    <i name="e_fr_energy">   -191.87338178 </i>
    <i name="e_wo_entrp">   -191.87832160 </i>
    <i name="e_0_energy">   -191.87502839 </i>
   </energy>
  </scstep>
  <scstep>
   <time name="diag">    0.44    0.44</time>
   <time name="diis">    2.08    2.08</time>
   <time name="orth">    0.04    0.04</time>
   <time name="total">    2.67    2.67</time>
   <dipole>
    <v name="dipole">      0.00000000       0.00000000       0.46788017 </v>
    <i name="Tr[quadrupol]">   -408.05481620 </i>
    <i name="Echarged">      0.00000000 </i>
    <i name="Edipol_quadrupol">      0.00000000 </i>
    <i name="Eion">      0.00000000 </i>
   </dipole>
   <energy>
    <i name="alphaZ">    102.61040910 </i>
    <i name="ewald">  12538.25651525 </i>
    <i name="hartreedc"> -15440.58271831 </i>
    <i name="XCdc">    307.38467903 </i>
    <i name="pawpsdc">   8460.51213031 </i>
    <i name="pawaedc">  -8474.46728222 </i>
    <i name="eentropy">      0.00493889 </i>
    <i name="bandstr">   -728.58595301 </i>
    <i name="atom">   3042.99389965 </i>
    <i name="e_fr_energy">   -191.87338132 </i>
    <i name="e_wo_entrp">   -191.87832021 </i>
    <i name="e_0_energy">   -191.87502762 </i>
   </energy>
  </scstep>
  <structure>
   <crystal>
    <varray name="basis" >
     <v>       5.05260000       0.00000000       0.00000000 </v>
     <v>       0.00000000       5.05260000       0.00000000 </v>
     <v>       0.00000000       0.00000000      14.57270000 </v>
    </varray>
    <i name="volume">    372.02305936 </i>
    <varray name="rec_basis" >
     <v>       0.19791790       0.00000000       0.00000000 </v>
     <v>       0.00000000       0.19791790       0.00000000 </v>
     <v>       0.00000000       0.00000000       0.06862146 </v>
    </varray>
   </crystal>
   <varray name="positions" >
    <v>       0.00192194       0.99798774       0.19286625 </v>
    <v>       0.25000000       0.25000000       0.06862000 </v>
    <v>       0.24586542       0.35393531       0.28884481 </v>
    <v>       0.25467492       0.00134550       0.13251155 </v>
    <v>       0.00276524       0.27500482       0.24294307 </v>
    <v>       0.00282170       0.50135324       0.18197651 </v>
    <v>       0.25000000       0.75000000       0.06862000 </v>
    <v>       0.25370971       0.64066007       0.28759901 </v>
    <v>       0.24529233       0.49784320       0.12886113 </v>
    <v>       0.00173026       0.72996110       0.24122623 </v>
    <v>       0.49742540       0.00426259       0.19152902 </v>
    <v>       0.75000000       0.25000000       0.06862000 </v>
    <v>       0.75297615       0.35536228       0.28889141 </v>
    <v>       0.75214885       0.00504043       0.13100898 </v>
    <v>       0.50629371       0.28099359       0.24208474 </v>
    <v>       0.50065347       0.50102413       0.18279908 </v>
    <v>       0.75000000       0.75000000       0.06862000 </v>
    <v>       0.75034737       0.64590076       0.28963308 </v>
    <v>       0.74940876       0.50247377       0.12869189 </v>
    <v>       0.50127297       0.72074360       0.24272199 </v>
    <v>       0.39214934       0.25000000       0.01612382 </v>
    <v>       0.10785066       0.25000000       0.01612382 </v>
    <v>       0.39214934       0.75000000       0.01612382 </v>
    <v>       0.10785066       0.75000000       0.01612382 </v>
    <v>       0.89214934       0.25000000       0.01612382 </v>
    <v>       0.60785066       0.25000000       0.01612382 </v>
    <v>       0.89214934       0.75000000       0.01612382 </v>
    <v>       0.60785066       0.75000000       0.01612382 </v>
   </varray>
  </structure>
  <varray name="forces" >
   <v>      -0.02466916       1.00496183      -0.74843506 </v>
   <v>      -0.06749377      -0.25955245       0.98901741 </v>
   <v>       1.93760944       3.46130759       2.21945292 </v>
   <v>      -1.05135999      -0.18974890      -3.36461360 </v>
   <v>      -0.69954586      -3.39357505       2.95005736 </v>
   <v>      -1.30138126      -0.22922766      -4.51985050 </v>
   <v>       0.08456330       0.15075744       1.10542756 </v>
   <v>      -1.21394516      -2.63788586       2.36683960 </v>
   <v>       1.63920200       0.51825786      -6.38444099 </v>
[...]
  <i name="lattice kinetic">      0.00000000 </i>
  <i name="nosepot">      4.00233183 </i>
  <i name="nosekinetic">      0.53728317 </i>
  <i name="total">   -193.31109971 </i>
 </energy>
 <time name="totalsc">    0.07    0.07</time>
 <structure>
  <crystal>
   <varray name="basis" >
    <v>       5.05260000       0.00000000       0.00000000 </v>
    <v>       0.00000000       5.05260000       0.00000000 </v>
    <v>       0.00000000       0.00000000      14.57270000 </v>
   </varray>
   <i name="volume">    372.02305936 </i>
   <varray name="rec_basis" >
    <v>       0.19791790       0.00000000       0.00000000 </v>
    <v>       0.00000000       0.19791790       0.00000000 </v>
    <v>       0.00000000       0.00000000       0.06862146 </v>
   </varray>
  </crystal>
  <varray name="positions" >
   <v>       0.99978051       0.99981783       0.19819477 </v>
   <v>       0.25000000       0.25000000       0.06862000 </v>
   <v>       0.25321048       0.36622012       0.29698200 </v>
   <v>       0.25149644       0.00086398       0.13219964 </v>
   <v>       0.00400130       0.27299660       0.24975939 </v>
   <v>       0.00245607       0.50150619       0.18053525 </v>
   <v>       0.25000000       0.75000000       0.06862000 </v>
   <v>       0.25284353       0.63207894       0.29701703 </v>
   <v>       0.25073514       0.49971784       0.12362152 </v>
   <v>       0.00581820       0.73104860       0.24984745 </v>
   <v>       0.50114915       0.00162154       0.19772486 </v>
   <v>       0.75000000       0.25000000       0.06862000 </v>
   <v>       0.75661357       0.36873104       0.29732371 </v>
   <v>       0.75290307       0.99996649       0.13147841 </v>
   <v>       0.50391093       0.27108384       0.24985613 </v>
   <v>       0.50418359       0.49918819       0.18052021 </v>
   <v>       0.75000000       0.75000000       0.06862000 </v>
   <v>       0.75554784       0.63376185       0.29709090 </v>
   <v>       0.75486380       0.49969938       0.12333733 </v>
   <v>       0.50432468       0.72950673       0.24972560 </v>
   <v>       0.39214934       0.25000000       0.01612382 </v>
   <v>       0.10785066       0.25000000       0.01612382 </v>
   <v>       0.39214934       0.75000000       0.01612382 </v>
   <v>       0.10785066       0.75000000       0.01612382 </v>
   <v>       0.89214934       0.25000000       0.01612382 </v>
   <v>       0.60785066       0.25000000       0.01612382 </v>
   <v>       0.89214934       0.75000000       0.01612382 </v>
   <v>       0.60785066       0.75000000       0.01612382 </v>
  </varray>
 </structure>
 <varray name="forces" >
  <v>       0.55708134       0.33941895      -1.16382679 </v>
  <v>       0.06685363      -0.78803186       0.42159619 </v>
  <v>       0.13239149      -1.59309910       0.27861791 </v>
  <v>      -0.16626115      -0.13506722      -0.73663042 </v>
  <v>      -0.16070922      -0.96241986       1.13106350 </v>
  <v>       0.14767198      -0.09113502      -1.36035746 </v>
  <v>       0.12427496       0.83312627       0.47698236 </v>
  <v>       0.41959396       1.97552430       0.19496798 </v>
  <v>       0.46211943       0.11123650      -1.59925867 </v>
  <v>      -0.59626801       0.32014037       1.27349816 </v>
  <v>       0.27539534      -0.34103001      -0.85760359 </v>
  <v>       0.29078844      -0.86177235       0.34666279 </v>
  <v>      -0.42999958      -1.93285325       0.18703551 </v>
  <v>      -0.38629877       0.03626318      -0.54804193 </v>
  <v>       0.14003855      -0.50074138       1.27179298 </v>
  <v>      -0.22626378       0.22018990      -1.24786826 </v>
  <v>       0.23454322       0.82258787       0.39467617 </v>
  <v>      -0.09931730       1.90812294       0.14808283 </v>
  <v>      -0.59778176       0.08726085      -1.52727313 </v>
  <v>      -0.15095491       0.54446825       1.26905255 </v>
  <v>      -0.08322782      -0.24413119       0.19715444 </v>
  <v>       0.08073903      -0.23295212       0.22275345 </v>
  <v>      -0.11331977       0.23500016       0.19004534 </v>
  <v>       0.06213562       0.25488478       0.23329307 </v>
  <v>      -0.10517475      -0.24884323       0.14874092 </v>
  <v>       0.08818534      -0.22879573       0.24782846 </v>
  <v>      -0.08624068       0.26200547       0.14771338 </v>
  <v>       0.12000516       0.21064255       0.25930225 </v>
 </varray>
 <varray name="stress" >
  <v>    -199.29523085      -0.57493927      -4.72940718 </v>
  <v>      -0.57493927    -189.69788075      -0.53932577 </v>
  <v>      -4.72940718      -0.53932577      11.80469533 </v>
 </varray>
 <energy>
  <i name="e_fr_energy">   -198.01342359 </i>
  <i name="e_wo_entrp">   -198.01342359 </i>
  <i name="e_0_energy">   -198.01342359 </i>
  <i name="kinetic">      0.15367513 </i>
  <i name="lattice kinetic">      0.00000000 </i>
  <i name="nosepot">      4.05140387 </i>
  <i name="nosekinetic">      0.49752851 </i>
  <i name="total">   -193.31081608 </i>
 </energy>
 <time name="totalsc">    0.07    0.07</time>
 <structure>
  <crystal>
   <varray name="basis" >
    <v>       5.05260000       0.00000000       0.00000000 </v>
    <v>       0.00000000       5.05260000       0.00000000 </v>
    <v>       0.00000000       0.00000000      14.57270000 </v>
   </varray>
   <i name="volume">    372.02305936 </i>
   <varray name="rec_basis" >
    <v>       0.19791790       0.00000000       0.00000000 </v>
    <v>       0.00000000       0.19791790       0.00000000 </v>
    <v>       0.00000000       0.00000000       0.06862146 </v>
   </varray>
  </crystal>
  <varray name="positions" >
   <v>       0.99965500       0.99841965       0.19769174 </v>
   <v>       0.25000000       0.25000000       0.06862000 </v>
   <v>       0.25358867       0.36632116       0.29684675 </v>
   <v>       0.25201280       0.00028633       0.13210711 </v>
   <v>       0.00396904       0.27311985       0.24969330 </v>
   <v>       0.00195996       0.50188734       0.18015219 </v>
   <v>       0.25000000       0.75000000       0.06862000 </v>
   <v>       0.25329428       0.63183475       0.29679107 </v>
   <v>       0.25067989       0.49958322       0.12303715 </v>
   <v>       0.00528604       0.73101823       0.24945890 </v>
   <v>       0.50071610       0.00173309       0.19717798 </v>
   <v>       0.75000000       0.25000000       0.06862000 </v>
   <v>       0.75650311       0.36811793       0.29691425 </v>
   <v>       0.75281423       0.00031056       0.13152730 </v>
   <v>       0.50353590       0.27100275       0.24989801 </v>
   <v>       0.50385151       0.49925733       0.17999665 </v>
   <v>       0.75000000       0.75000000       0.06862000 </v>
   <v>       0.75520738       0.63412780       0.29704250 </v>
   <v>       0.75602926       0.50010586       0.12279495 </v>
   <v>       0.50420193       0.72898539       0.24973540 </v>
   <v>       0.39214934       0.25000000       0.01612382 </v>
   <v>       0.10785066       0.25000000       0.01612382 </v>
   <v>       0.39214934       0.75000000       0.01612382 </v>
   <v>       0.10785066       0.75000000       0.01612382 </v>
   <v>       0.89214934       0.25000000       0.01612382 </v>
   <v>       0.60785066       0.25000000       0.01612382 </v>
   <v>       0.89214934       0.75000000       0.01612382 </v>
   <v>       0.60785066       0.75000000       0.01612382 </v>
  </varray>
 </structure>
 <varray name="forces" >
  <v>       0.57479443       0.67159891      -0.93749029 </v>
  <v>       0.07300019      -0.88377397       0.29155444 </v>
  <v>       0.02024919      -1.63235923       0.27121062 </v>
  <v>      -0.28235445      -0.06485231      -0.80127579 </v>
  <v>      -0.14293420      -1.07843893       0.96480802 </v>
  <v>       0.33775661      -0.22987259      -1.20862469 </v>
  <v>       0.15701714       0.84313866       0.31842099 </v>
  <v>       0.27199578       2.06758908       0.17046580 </v>
  <v>       0.45746062       0.14938027      -1.28500024 </v>
  <v>      -0.49039338       0.24054382       1.32139916 </v>
  <v>       0.33966609      -0.39800820      -0.53830926 </v>
  <v>       0.33100847      -0.85919858       0.23024281 </v>
  <v>      -0.43472280      -1.68110966       0.25260233 </v>
  <v>      -0.39085053      -0.07719108      -0.61720926 </v>
  <v>       0.21840345      -0.52241203       1.00513739 </v>
  <v>      -0.10132427       0.15610902      -1.08172390 </v>
  <v>       0.24868847       0.91259731       0.24169781 </v>
  <v>      -0.06829614       1.67998510       0.09970793 </v>
  <v>      -0.93273509       0.01800719      -1.27003569 </v>
  <v>      -0.13631709       0.68379638       1.07339624 </v>
  <v>      -0.08538316      -0.25971110       0.17715581 </v>
  <v>       0.09212034      -0.25158475       0.20524560 </v>
  <v>      -0.11917970       0.24239652       0.16068397 </v>
  <v>       0.05777902       0.26805843       0.22064210 </v>
  <v>      -0.11928297      -0.26894230       0.12389082 </v>
  <v>       0.08672204      -0.23315278       0.24366416 </v>
  <v>      -0.08566522       0.28855224       0.12633619 </v>
  <v>       0.12277717       0.21885459       0.24140693 </v>
 </varray>
 <varray name="stress" >
  <v>    -197.29979464      -0.55448670      -4.33674772 </v>
  <v>      -0.55448670    -187.32271708       0.23250260 </v>
  <v>      -4.33674772       0.23250260      13.73857060 </v>
 </varray>
 <energy>
  <i name="e_fr_energy">   -198.05257022 </i>
  <i name="e_wo_entrp">   -198.05257022 </i>
  <i name="e_0_energy">   -198.05257022 </i>
  <i name="kinetic">      0.18225557 </i>
  <i name="lattice kinetic">      0.00000000 </i>
  <i name="nosepot">      4.09860259 </i>
  <i name="nosekinetic">      0.45980176 </i>
  <i name="total">   -193.31191030 </i>
 </energy>
 <time name="totalsc">    0.07    0.07</time>
 <structure>
  <crystal>
   <varray name="basis" >
    <v>       5.05260000       0.00000000       0.00000000 </v>
    <v>       0.00000000       5.05260000       0.00000000 </v>
    <v>       0.00000000       0.00000000      14.57270000 </v>
   </varray>
   <i name="volume">    372.02305936 </i>
   <varray name="rec_basis" >
    <v>       0.19791790       0.00000000       0.00000000 </v>
    <v>       0.00000000       0.19791790       0.00000000 </v>
    <v>       0.00000000       0.00000000       0.06862146 </v>
   </varray>
  </crystal>
  <varray name="positions" >
   <v>       0.99973574       0.99729696       0.19708790 </v>
   <v>       0.25000000       0.25000000       0.06862000 </v>
   <v>       0.25396358       0.36584352       0.29674841 </v>
   <v>       0.25241531       0.99970174       0.13191912 </v>
   <v>       0.00388725       0.27285923       0.24974706 </v>
   <v>       0.00159670       0.50217688       0.17963186 </v>
   <v>       0.25000000       0.75000000       0.06862000 </v>
   <v>       0.25382855       0.63232673       0.29659220 </v>
   <v>       0.25078755       0.49950502       0.12231172 </v>
   <v>       0.00459554       0.73107356       0.24924269 </v>
   <v>       0.50041482       0.00170116       0.19658034 </v>
   <v>       0.75000000       0.25000000       0.06862000 </v>
   <v>       0.75624233       0.36692864       0.29654698 </v>
   <v>       0.75258995       0.00061791       0.13149934 </v>
   <v>       0.50324826       0.27073959       0.25006168 </v>
   <v>       0.50349283       0.49937965       0.17935520 </v>
   <v>       0.75000000       0.75000000       0.06862000 </v>
   <v>       0.75485222       0.63507634       0.29700762 </v>
   <v>       0.75683352       0.50050749       0.12211217 </v>
   <v>       0.50403447       0.72871966       0.24987622 </v>
   <v>       0.39214934       0.25000000       0.01612382 </v>
   <v>       0.10785066       0.25000000       0.01612382 </v>
   <v>       0.39214934       0.75000000       0.01612382 </v>
   <v>       0.10785066       0.75000000       0.01612382 </v>
   <v>       0.89214934       0.25000000       0.01612382 </v>
   <v>       0.60785066       0.25000000       0.01612382 </v>
   <v>       0.89214934       0.75000000       0.01612382 </v>
   <v>       0.60785066       0.75000000       0.01612382 </v>
  </varray>
 </structure>
 <varray name="forces" >
  <v>       0.54572782       0.90923201      -0.64721170 </v>
  <v>       0.08268120      -0.98905863       0.11829228 </v>
  <v>      -0.08536617      -1.35118073       0.26714131 </v>
  <v>      -0.36907279       0.01496985      -0.82258128 </v>
  <v>      -0.11016065      -1.11057454       0.70809053 </v>
  <v>       0.47921495      -0.35137469      -0.93590277 </v>
  <v>       0.18590303       0.87026530       0.11271956 </v>
  <v>       0.09257639       1.80577035       0.16782001 </v>
  <v>       0.40930912       0.17289348      -0.88191444 </v>
  <v>      -0.33451272       0.17627447       1.22901531 </v>
  <v>       0.38299235      -0.41518207      -0.18815127 </v>
  <v>       0.35068088      -0.87008804       0.07152483 </v>
  <v>      -0.41806918      -1.15175227       0.32686641 </v>
  <v>      -0.36378238      -0.17736481      -0.65298802 </v>
  <v>       0.26336165      -0.53227040       0.65045546 </v>
  <v>       0.01925346       0.08980294      -0.80358270 </v>
  <v>       0.24990895       1.01645436       0.04282336 </v>
  <v>      -0.05058446       1.16238275       0.07404234 </v>
  <v>      -1.16224150      -0.05707327      -0.91233795 </v>
  <v>      -0.10609912       0.78726809       0.77364562 </v>
  <v>      -0.08966998      -0.27770727       0.15093079 </v>
  <v>       0.10494556      -0.27086625       0.18293372 </v>
  <v>      -0.12476269       0.25347107       0.12709636 </v>
  <v>       0.05791211       0.28073663       0.19961080 </v>
  <v>      -0.13323860      -0.29024714       0.09695009 </v>
  <v>       0.08681710      -0.24050181       0.22949227 </v>
  <v>      -0.08839606       0.31471398       0.10098139 </v>
  <v>       0.12467176       0.23100663       0.21423770 </v>
 </varray>
 <varray name="stress" >
  <v>    -195.14373875      -0.45985259      -4.12804241 </v>
  <v>      -0.45985259    -188.23448451       0.86592478 </v>
  <v>      -4.12804241       0.86592478      15.14737605 </v>
 </varray>
 <energy>
  <i name="e_fr_energy">   -198.11950623 </i>
  <i name="e_wo_entrp">   -198.11950623 </i>
  <i name="e_0_energy">   -198.11950623 </i>
  <i name="kinetic">      0.23574273 </i>
  <i name="lattice kinetic">      0.00000000 </i>
  <i name="nosepot">      4.14400488 </i>
  <i name="nosekinetic">      0.42601920 </i>
  <i name="total">   -193.31373943 </i>
 </energy>
 <time name="totalsc">    3.41    3.41</time>
 <structure name="finalpos" >
  <crystal>
   <varray name="basis" >
    <v>       5.05260000       0.00000000       0.00000000 </v>
    <v>       0.00000000       5.05260000       0.00000000 </v>
    <v>       0.00000000       0.00000000      14.57270000 </v>
   </varray>
   <i name="volume">    372.02305936 </i>
   <varray name="rec_basis" >
    <v>       0.19791790       0.00000000       0.00000000 </v>
    <v>       0.00000000       0.19791790       0.00000000 </v>
    <v>       0.00000000       0.00000000       0.06862146 </v>
   </varray>
  </crystal>
  <varray name="positions" >
   <v>       0.00000696       0.99652502       0.19642089 </v>
   <v>       0.25000000       0.25000000       0.06862000 </v>
   <v>       0.25429840       0.36490164       0.29668537 </v>
   <v>       0.25267685       0.99913795       0.13163545 </v>
   <v>       0.00376875       0.27221353       0.24988604 </v>
   <v>       0.00141223       0.50233470       0.17901080 </v>
   <v>       0.25000000       0.75000000       0.06862000 </v>
   <v>       0.25438132       0.63344303       0.29641914 </v>
   <v>       0.25103684       0.49948991       0.12149763 </v>
   <v>       0.00380531       0.73118965       0.24918263 </v>
   <v>       0.50025674       0.00152352       0.19597555 </v>
   <v>       0.75000000       0.25000000       0.06862000 </v>
   <v>       0.75584091       0.36536440       0.29622947 </v>
   <v>       0.75224322       0.00085449       0.13139221 </v>
   <v>       0.50306123       0.27029554       0.25030061 </v>
   <v>       0.50315047       0.49953041       0.17863245 </v>
   <v>       0.75000000       0.75000000       0.06862000 </v>
   <v>       0.75448864       0.63640999       0.29698274 </v>
   <v>       0.75720618       0.50087830       0.12133587 </v>
   <v>       0.50383401       0.72873888       0.25010799 </v>
   <v>       0.39214934       0.25000000       0.01612382 </v>
   <v>       0.10785066       0.25000000       0.01612382 </v>
   <v>       0.39214934       0.75000000       0.01612382 </v>
   <v>       0.10785066       0.75000000       0.01612382 </v>
   <v>       0.89214934       0.25000000       0.01612382 </v>
   <v>       0.60785066       0.25000000       0.01612382 </v>
   <v>       0.89214934       0.75000000       0.01612382 </v>
   <v>       0.60785066       0.75000000       0.01612382 </v>
  </varray>
  <varray name="selective"  type="logical" >
   <v type="logical" >  T  T  T </v>
   <v type="logical" >  F  F  F </v>
   <v type="logical" >  T  T  T </v>
   <v type="logical" >  T  T  T </v>
   <v type="logical" >  T  T  T </v>
   <v type="logical" >  T  T  T </v>
   <v type="logical" >  F  F  F </v>
   <v type="logical" >  T  T  T </v>
   <v type="logical" >  T  T  T </v>
   <v type="logical" >  T  T  T </v>
   <v type="logical" >  T  T  T </v>
   <v type="logical" >  F  F  F </v>
   <v type="logical" >  T  T  T </v>
   <v type="logical" >  T  T  T </v>
   <v type="logical" >  T  T  T </v>
   <v type="logical" >  T  T  T </v>
   <v type="logical" >  F  F  F </v>
   <v type="logical" >  T  T  T </v>
   <v type="logical" >  T  T  T </v>
   <v type="logical" >  T  T  T </v>
   <v type="logical" >  F  F  F </v>
   <v type="logical" >  F  F  F </v>
   <v type="logical" >  F  F  F </v>
   <v type="logical" >  F  F  F </v>
   <v type="logical" >  F  F  F </v>
   <v type="logical" >  F  F  F </v>
   <v type="logical" >  F  F  F </v>
   <v type="logical" >  F  F  F </v>
  </varray>
  <varray name="velocities" >
   <v>       0.00027122      -0.00077193      -0.00066701 </v>
   <v>       0.00000000       0.00000000       0.00000000 </v>
   <v>       0.00033482      -0.00094188      -0.00006304 </v>
   <v>       0.00026154      -0.00056378      -0.00028367 </v>
   <v>      -0.00011850      -0.00064570       0.00013898 </v>
   <v>      -0.00018447       0.00015782      -0.00062105 </v>
   <v>       0.00000000       0.00000000       0.00000000 </v>
   <v>       0.00055276       0.00111630      -0.00017305 </v>
   <v>       0.00024928      -0.00001510      -0.00081409 </v>
   <v>      -0.00079023       0.00011608      -0.00006006 </v>
   <v>      -0.00015809      -0.00017764      -0.00060480 </v>
   <v>       0.00000000       0.00000000       0.00000000 </v>
   <v>      -0.00040142      -0.00156424      -0.00031751 </v>
   <v>      -0.00034673       0.00023658      -0.00010713 </v>
   <v>      -0.00018704      -0.00044405       0.00023893 </v>
   <v>      -0.00034235       0.00015076      -0.00072275 </v>
   <v>       0.00000000       0.00000000       0.00000000 </v>
   <v>      -0.00036359       0.00133364      -0.00002489 </v>
   <v>       0.00037266       0.00037081      -0.00077630 </v>
   <v>      -0.00020046       0.00001922       0.00023176 </v>
   <v>       0.00000000       0.00000000       0.00000000 </v>
   <v>       0.00000000       0.00000000       0.00000000 </v>
   <v>       0.00000000       0.00000000       0.00000000 </v>
   <v>       0.00000000       0.00000000       0.00000000 </v>
   <v>       0.00000000       0.00000000       0.00000000 </v>
   <v>       0.00000000       0.00000000       0.00000000 </v>
   <v>       0.00000000       0.00000000       0.00000000 </v>
   <v>       0.00000000       0.00000000       0.00000000 </v>
  </varray>
  <nose>
   <v>       1.00000000       0.00000000     400.00000000     400.00000000 </v>
  </nose>
 </structure>
</modeling>
