C100                                    
           1
     5.052600    0.000000    0.000000
     0.000000    5.052600    0.000000
     0.000000    0.000000   14.572700
   C    H 
    20     8
Direct configuration=    10
   1.00755930  0.00503358  0.19540151
   0.25000000  0.25000000  0.06862000
   0.25512915  0.36565206  0.29612835
   0.25716412  0.00312708  0.12701529
   0.00463772  0.25141189  0.25471557
  -0.00201756  0.50336058  0.16964007
   0.25000000  0.75000000  0.06862000
   0.25303397  0.62438025  0.29166827
   0.24900011  0.49940398  0.11090094
   0.00671065  0.75088857  0.25362333
   0.50660798  1.00995844  0.19517780
   0.75000000  0.25000000  0.06862000
   0.76180016  0.37537946  0.29605209
   0.75506563  0.00628921  0.12540820
   0.50846614  0.26126406  0.25378743
   0.50153494  0.50334578  0.16929876
   0.75000000  0.75000000  0.06862000
   0.75934149  0.63447265  0.29698978
   0.75044154  0.50388185  0.11134218
   0.50652159  0.74742266  0.25469417
   0.39214934  0.25000000  0.01612382
   0.10785066  0.25000000  0.01612382
   0.39214934  0.75000000  0.01612382
   0.10785066  0.75000000  0.01612382
   0.89214934  0.25000000  0.01612382
   0.60785066  0.25000000  0.01612382
   0.89214934  0.75000000  0.01612382
   0.60785066  0.75000000  0.01612382
Direct configuration=    20
   1.00780240 -0.00092366  0.19883570
   0.25000000  0.25000000  0.06862000
   0.25964536  0.36755434  0.30323532
   0.25005138  0.00106388  0.13445810
   0.01194182  0.28185031  0.25273666
   0.00616190  0.50030938  0.18076879
   0.25000000  0.75000000  0.06862000
   0.26470051  0.64387161  0.30366741
   0.25436276  0.50010050  0.12460562
   0.00793823  0.72904931  0.25139666
   0.51288156  0.99777027  0.20106013
   0.75000000  0.25000000  0.06862000
   0.75710524  0.36405329  0.30378608
   0.75624302 -0.00416120  0.13678825
   0.51516986  0.27327715  0.25218996
   0.50605667  0.50143467  0.18122528
   0.75000000  0.75000000  0.06862000
   0.75664533  0.64460809  0.30376474
   0.75088208  0.49759659  0.12397575
   0.51135384  0.73518335  0.25245957
   0.39214934  0.25000000  0.01612382
   0.10785066  0.25000000  0.01612382
   0.39214934  0.75000000  0.01612382
   0.10785066  0.75000000  0.01612382
   0.89214934  0.25000000  0.01612382
   0.60785066  0.25000000  0.01612382
   0.89214934  0.75000000  0.01612382
   0.60785066  0.75000000  0.01612382
Direct configuration=    30
   1.00604764  0.00274769  0.19979137
   0.25000000  0.25000000  0.06862000
   0.26180545  0.36667977  0.30273546
   0.25641607 -0.00357286  0.13182550
   0.00901668  0.26479118  0.26126193
   0.00718590  0.50446350  0.18432918
   0.25000000  0.75000000  0.06862000
   0.25876268  0.64880431  0.30517622
   0.25771823  0.49911233  0.12561378
   0.01110178  0.73744814  0.25943573
   0.50118473  1.00079060  0.19792111
   0.75000000  0.25000000  0.06862000
   0.76308566  0.36418018  0.30279538
   0.75188330  0.00199026  0.13135928
   0.50425960  0.26811617  0.26089970
   0.50645105  0.49724893  0.18372567
   0.75000000  0.75000000  0.06862000
   0.76334570  0.64159879  0.30257554
   0.75919624  0.50367575  0.12658642
   0.50814973  0.73146445  0.26010073
   0.39214934  0.25000000  0.01612382
   0.10785066  0.25000000  0.01612382
   0.39214934  0.75000000  0.01612382
   0.10785066  0.75000000  0.01612382
   0.89214934  0.25000000  0.01612382
   0.60785066  0.25000000  0.01612382
   0.89214934  0.75000000  0.01612382
   0.60785066  0.75000000  0.01612382
Direct configuration=    40
   1.00395833  0.00198035  0.19750459
   0.25000000  0.25000000  0.06862000
   0.25363402  0.36472933  0.30636685
   0.24895108  0.00469002  0.13104719
   0.00619308  0.26473861  0.25730882
   0.00739995  0.50020565  0.18024561
   0.25000000  0.75000000  0.06862000
   0.25788177  0.63262120  0.30387663
   0.25385661  0.50129317  0.12032036
   0.00616786  0.73933714  0.25616309
   0.50592557  1.00142019  0.19849977
   0.75000000  0.25000000  0.06862000
   0.75553399  0.36645967  0.30406492
   0.75019382  0.00000193  0.13081092
   0.50970277  0.26416955  0.25534876
   0.50646762  0.50361449  0.18110732
   0.75000000  0.75000000  0.06862000
   0.75505111  0.63630192  0.30468197
   0.75197142  0.49830690  0.12010416
   0.50781466  0.73836962  0.25409783
   0.39214934  0.25000000  0.01612382
   0.10785066  0.25000000  0.01612382
   0.39214934  0.75000000  0.01612382
   0.10785066  0.75000000  0.01612382
   0.89214934  0.25000000  0.01612382
   0.60785066  0.25000000  0.01612382
   0.89214934  0.75000000  0.01612382
   0.60785066  0.75000000  0.01612382
Direct configuration=    50
   1.00184901 -0.00114983  0.19847881
   0.25000000  0.25000000  0.06862000
   0.25651324  0.36322258  0.29732499
   0.25343074 -0.00310956  0.13240147
   0.00203584  0.27284387  0.25077739
  -0.00187568  0.50092931  0.17993583
   0.25000000  0.75000000  0.06862000
   0.25352425  0.63464112  0.29773750
   0.25084616  0.49909765  0.12398984
   0.00247034  0.72398622  0.25117750
   0.50193981  1.00108962  0.19682420
   0.75000000  0.25000000  0.06862000
   0.75189642  0.36512014  0.29918711
   0.75347827  0.00066093  0.13264892
   0.50109681  0.27431548  0.25074836
   0.49994609  0.49824860  0.17817815
   0.75000000  0.75000000  0.06862000
   0.75275787  0.63626675  0.29837632
   0.75221748  0.50105520  0.12399069
   0.50117287  0.72799751  0.25185662
   0.39214934  0.25000000  0.01612382
   0.10785066  0.25000000  0.01612382
   0.39214934  0.75000000  0.01612382
   0.10785066  0.75000000  0.01612382
   0.89214934  0.25000000  0.01612382
   0.60785066  0.25000000  0.01612382
   0.89214934  0.75000000  0.01612382
   0.60785066  0.75000000  0.01612382
Direct configuration=    60
   1.00171181 -0.00122485  0.19429390
   0.25000000  0.25000000  0.06862000
   0.24728887  0.36029563  0.29426758
   0.25032784  0.00149394  0.12887117
  -0.00099504  0.26034521  0.25167805
   0.00028754  0.49776211  0.17664675
   0.25000000  0.75000000  0.06862000
   0.24775919  0.64107953  0.29638308
   0.24785411  0.50055157  0.11798790
  -0.00067973  0.73856218  0.25142994
   0.50120593  0.99802493  0.19494422
   0.75000000  0.25000000  0.06862000
   0.75015861  0.35783836  0.29458391
   0.74936150 -0.00153165  0.12858272
   0.50064223  0.25952313  0.25067231
   0.49959188  0.50100240  0.17805960
   0.75000000  0.75000000  0.06862000
   0.74826206  0.63749953  0.29560206
   0.74665079  0.49957964  0.11790192
   0.50045395  0.73492099  0.25101301
   0.39214934  0.25000000  0.01612382
   0.10785066  0.25000000  0.01612382
   0.39214934  0.75000000  0.01612382
   0.10785066  0.75000000  0.01612382
   0.89214934  0.25000000  0.01612382
   0.60785066  0.25000000  0.01612382
   0.89214934  0.75000000  0.01612382
   0.60785066  0.75000000  0.01612382
Direct configuration=    70
   0.99674070 -0.00024064  0.19371894
   0.25000000  0.25000000  0.06862000
   0.24725041  0.36355219  0.29838710
   0.24856373 -0.00150407  0.12880472
  -0.00157708  0.27097736  0.24703220
  -0.00244677  0.50088033  0.17900445
   0.25000000  0.75000000  0.06862000
   0.24755401  0.63220934  0.29674712
   0.24996562  0.49944106  0.12275932
  -0.00306571  0.72544270  0.24747312
   0.49752293  0.99895578  0.19384204
   0.75000000  0.25000000  0.06862000
   0.74647683  0.36346228  0.29705746
   0.74970827  0.00082300  0.12893802
   0.49597003  0.27183829  0.24831701
   0.49731578  0.49697889  0.17791416
   0.75000000  0.75000000  0.06862000
   0.74835081  0.63336025  0.29682795
   0.75072981  0.49970183  0.12292969
   0.49632094  0.72758316  0.24813884
   0.39214934  0.25000000  0.01612382
   0.10785066  0.25000000  0.01612382
   0.39214934  0.75000000  0.01612382
   0.10785066  0.75000000  0.01612382
   0.89214934  0.25000000  0.01612382
   0.60785066  0.25000000  0.01612382
   0.89214934  0.75000000  0.01612382
   0.60785066  0.75000000  0.01612382
Direct configuration=    80
   0.99737858 -0.00047831  0.19687125
   0.25000000  0.25000000  0.06862000
   0.24658059  0.36072281  0.29733637
   0.24788289  0.00064967  0.13068745
  -0.00465697  0.26230438  0.25321840
  -0.00038532  0.49790382  0.17722175
   0.25000000  0.75000000  0.06862000
   0.24672171  0.63520722  0.29742389
   0.24826119  0.49988401  0.11946928
  -0.00231593  0.73808067  0.25361556
   0.49556444  1.00060336  0.19688982
   0.75000000  0.25000000  0.06862000
   0.74698806  0.36287318  0.29796712
   0.74658559 -0.00084064  0.13086634
   0.49701882  0.26039452  0.25338253
   0.49971649  0.50105442  0.17845119
   0.75000000  0.75000000  0.06862000
   0.74566657  0.63601849  0.29747251
   0.74749575  0.50006792  0.11940485
   0.49706386  0.73611430  0.25278493
   0.39214934  0.25000000  0.01612382
   0.10785066  0.25000000  0.01612382
   0.39214934  0.75000000  0.01612382
   0.10785066  0.75000000  0.01612382
   0.89214934  0.25000000  0.01612382
   0.60785066  0.25000000  0.01612382
   0.89214934  0.75000000  0.01612382
   0.60785066  0.75000000  0.01612382
Direct configuration=    90
   0.99669556 -0.00050587  0.19801314
   0.25000000  0.25000000  0.06862000
   0.24681066  0.36343008  0.30006577
   0.24795787 -0.00005610  0.13212841
  -0.00186481  0.27255587  0.25232374
  -0.00327393  0.50132484  0.18244246
   0.25000000  0.75000000  0.06862000
   0.24693557  0.63879738  0.30130186
   0.24906925  0.50052316  0.12375871
  -0.00352951  0.72499599  0.25236679
   0.49909100  0.99830132  0.19755357
   0.75000000  0.25000000  0.06862000
   0.74731466  0.36176759  0.30073512
   0.74938090  0.00006884  0.13174102
   0.49802692  0.27525368  0.25164518
   0.49716590  0.49892557  0.18128442
   0.75000000  0.75000000  0.06862000
   0.74791570  0.63801325  0.30124690
   0.74973015  0.49973431  0.12357759
   0.49769284  0.72614065  0.25202249
   0.39214934  0.25000000  0.01612382
   0.10785066  0.25000000  0.01612382
   0.39214934  0.75000000  0.01612382
   0.10785066  0.75000000  0.01612382
   0.89214934  0.25000000  0.01612382
   0.60785066  0.25000000  0.01612382
   0.89214934  0.75000000  0.01612382
   0.60785066  0.75000000  0.01612382
Direct configuration=   100
   1.00090453  0.00069716  0.19662366
   0.25000000  0.25000000  0.06862000
   0.25071954  0.36447193  0.30224407
   0.25212697 -0.00091385  0.12956270
  -0.00089799  0.26502745  0.25505418
  -0.00045905  0.49907309  0.17933326
   0.25000000  0.75000000  0.06862000
   0.24999751  0.63757684  0.30085595
   0.24811404  0.49913548  0.12096583
  -0.00090482  0.73940057  0.25505754
   0.49898639  1.00151136  0.19673249
   0.75000000  0.25000000  0.06862000
   0.74755598  0.36367535  0.30129769
   0.75014245 -0.00003971  0.12950709
   0.49833482  0.26235293  0.25489663
   0.49949678  0.50147582  0.17989738
   0.75000000  0.75000000  0.06862000
   0.74717674  0.63684451  0.30146013
   0.74783666  0.50052179  0.12128647
   0.49843440  0.73774541  0.25506249
   0.39214934  0.25000000  0.01612382
   0.10785066  0.25000000  0.01612382
   0.39214934  0.75000000  0.01612382
   0.10785066  0.75000000  0.01612382
   0.89214934  0.25000000  0.01612382
   0.60785066  0.25000000  0.01612382
   0.89214934  0.75000000  0.01612382
   0.60785066  0.75000000  0.01612382
Direct configuration=   110
   1.00162700  0.00183113  0.19688015
   0.25000000  0.25000000  0.06862000
   0.24866274  0.36502496  0.29891627
   0.24918522  0.00271593  0.13196455
   0.00067132  0.27120305  0.25147879
   0.00051113  0.50213227  0.18145660
   0.25000000  0.75000000  0.06862000
   0.24923680  0.63538823  0.29909762
   0.25139857  0.50147124  0.12369697
   0.00159788  0.72948823  0.25113741
   0.50215063  1.00076190  0.19662854
   0.75000000  0.25000000  0.06862000
   0.75294765  0.36742903  0.29896935
   0.75150868  0.00101133  0.13264162
   0.50128254  0.27320111  0.25188894
   0.49965300  0.50009545  0.18132119
   0.75000000  0.75000000  0.06862000
   0.75229476  0.63680984  0.29810782
   0.75145845  0.49963160  0.12333602
   0.50166345  0.73090544  0.25084523
   0.39214934  0.25000000  0.01612382
   0.10785066  0.25000000  0.01612382
   0.39214934  0.75000000  0.01612382
   0.10785066  0.75000000  0.01612382
   0.89214934  0.25000000  0.01612382
   0.60785066  0.25000000  0.01612382
   0.89214934  0.75000000  0.01612382
   0.60785066  0.75000000  0.01612382
Direct configuration=   120
   1.00012883 -0.00029123  0.19585563
   0.25000000  0.25000000  0.06862000
   0.25480584  0.36302947  0.29621707
   0.25248380 -0.00241583  0.12911067
   0.00331145  0.26849810  0.25004122
   0.00253755  0.49980829  0.17538297
   0.25000000  0.75000000  0.06862000
   0.25550700  0.64214543  0.29706524
   0.25206481  0.49868612  0.11796694
   0.00315546  0.73524978  0.25053729
   0.50032355  1.00063988  0.19690429
   0.75000000  0.25000000  0.06862000
   0.75219206  0.36169887  0.29698800
   0.75024876 -0.00037055  0.12822521
   0.50328343  0.26744814  0.25098327
   0.50372723  0.50068900  0.17597157
   0.75000000  0.75000000  0.06862000
   0.75385648  0.64259113  0.29730624
   0.75195166  0.50099010  0.11845949
   0.50224891  0.73312885  0.25112540
   0.39214934  0.25000000  0.01612382
   0.10785066  0.25000000  0.01612382
   0.39214934  0.75000000  0.01612382
   0.10785066  0.75000000  0.01612382
   0.89214934  0.25000000  0.01612382
   0.60785066  0.25000000  0.01612382
   0.89214934  0.75000000  0.01612382
   0.60785066  0.75000000  0.01612382
Direct configuration=   130
   1.00329839  0.00098595  0.19250086
   0.25000000  0.25000000  0.06862000
   0.25443325  0.36542038  0.29534559
   0.24908067  0.00229600  0.12985473
   0.00408902  0.26830935  0.24866983
   0.00359492  0.50081806  0.17922495
   0.25000000  0.75000000  0.06862000
   0.25317974  0.63693847  0.29418182
   0.25288707  0.50170442  0.12265621
   0.00362469  0.73277393  0.24824296
   0.50351258  0.99998678  0.19182429
   0.75000000  0.25000000  0.06862000
   0.75687929  0.36400864  0.29470661
   0.75111313 -0.00021529  0.13028172
   0.50451409  0.26775912  0.24785919
   0.50310689  0.50043042  0.17864379
   0.75000000  0.75000000  0.06862000
   0.75474669  0.63434405  0.29584445
   0.75309421  0.49928639  0.12203763
   0.50686810  0.73468590  0.24867787
   0.39214934  0.25000000  0.01612382
   0.10785066  0.25000000  0.01612382
   0.39214934  0.75000000  0.01612382
   0.10785066  0.75000000  0.01612382
   0.89214934  0.25000000  0.01612382
   0.60785066  0.25000000  0.01612382
   0.89214934  0.75000000  0.01612382
   0.60785066  0.75000000  0.01612382
Direct configuration=   140
   1.00304172  0.00056492  0.19698582
   0.25000000  0.25000000  0.06862000
   0.25530676  0.36247035  0.29750564
   0.25600634 -0.00107034  0.12725443
   0.00532739  0.26278079  0.25166207
   0.00101250  0.50007921  0.17771860
   0.25000000  0.75000000  0.06862000
   0.25503598  0.63123514  0.29802364
   0.25280680  0.49848340  0.12028812
   0.00474049  0.73441186  0.25157980
   0.50316908  1.00233857  0.19610086
   0.75000000  0.25000000  0.06862000
   0.75255121  0.36431061  0.29802875
   0.75478635  0.00252091  0.12755366
   0.50425768  0.26640014  0.25101271
   0.50176970  0.50027991  0.17807327
   0.75000000  0.75000000  0.06862000
   0.75416154  0.63358657  0.29609362
   0.75239965  0.50143804  0.12084837
   0.50118115  0.73278323  0.25099531
   0.39214934  0.25000000  0.01612382
   0.10785066  0.25000000  0.01612382
   0.39214934  0.75000000  0.01612382
   0.10785066  0.75000000  0.01612382
   0.89214934  0.25000000  0.01612382
   0.60785066  0.25000000  0.01612382
   0.89214934  0.75000000  0.01612382
   0.60785066  0.75000000  0.01612382
Direct configuration=   150
   1.00612555 -0.00491912  0.19799408
   0.25000000  0.25000000  0.06862000
   0.25063689  0.35434276  0.30343733
   0.25118834 -0.00043547  0.13651705
  -0.00047665  0.26948806  0.25470126
   0.00279340  0.49603000  0.18016125
   0.25000000  0.75000000  0.06862000
   0.25209699  0.64063400  0.30435339
   0.24827495  0.50122549  0.12001513
   0.00140408  0.72622451  0.25609171
   0.50447107  0.99598260  0.19909275
   0.75000000  0.25000000  0.06862000
   0.74993827  0.35534066  0.30275867
   0.75025014 -0.00608078  0.13579100
   0.50161430  0.26481163  0.25497030
   0.50021217  0.49713129  0.17845855
   0.75000000  0.75000000  0.06862000
   0.74929140  0.64289893  0.30321230
   0.74940380  0.49810827  0.11992154
   0.50199200  0.72855674  0.25538561
   0.39214934  0.25000000  0.01612382
   0.10785066  0.25000000  0.01612382
   0.39214934  0.75000000  0.01612382
   0.10785066  0.75000000  0.01612382
   0.89214934  0.25000000  0.01612382
   0.60785066  0.25000000  0.01612382
   0.89214934  0.75000000  0.01612382
   0.60785066  0.75000000  0.01612382
Direct configuration=   160
   0.99043617 -0.00119056  0.20561487
   0.25000000  0.25000000  0.06862000
   0.24416978  0.36291719  0.30436114
   0.24752661 -0.00329078  0.13116961
  -0.00276184  0.26261216  0.25929344
  -0.00667434  0.50159367  0.18674269
   0.25000000  0.75000000  0.06862000
   0.24430231  0.63143924  0.30347163
   0.25192506  0.49787393  0.13089208
  -0.00378398  0.72711456  0.25834938
   0.49474272  0.99545935  0.20368780
   0.75000000  0.25000000  0.06862000
   0.74905638  0.36019183  0.30372156
   0.75181324  0.00227079  0.13296475
   0.49436889  0.26841871  0.25955829
   0.49678133  0.49495654  0.18940586
   0.75000000  0.75000000  0.06862000
   0.75012391  0.62523532  0.30721925
   0.74992881  0.49993107  0.13057538
   0.49857835  0.72245036  0.26020765
   0.39214934  0.25000000  0.01612382
   0.10785066  0.25000000  0.01612382
   0.39214934  0.75000000  0.01612382
   0.10785066  0.75000000  0.01612382
   0.89214934  0.25000000  0.01612382
   0.60785066  0.25000000  0.01612382
   0.89214934  0.75000000  0.01612382
   0.60785066  0.75000000  0.01612382
Direct configuration=   170
   0.99226389  0.00046165  0.19343079
   0.25000000  0.25000000  0.06862000
   0.24039751  0.35695591  0.30935879
   0.24432209  0.00175309  0.13155227
  -0.00975521  0.24948505  0.26137981
  -0.00261386  0.49311317  0.18019699
   0.25000000  0.75000000  0.06862000
   0.24192693  0.62802722  0.30807283
   0.24321173  0.50028467  0.11757281
  -0.01178431  0.74228714  0.26219377
   0.48794788  1.00094090  0.19659620
   0.75000000  0.25000000  0.06862000
   0.73624095  0.35190371  0.31201721
   0.73549649 -0.00066004  0.13134320
   0.49214044  0.24262530  0.26065340
   0.49602654  0.49984111  0.17979366
   0.75000000  0.75000000  0.06862000
   0.73805258  0.63196202  0.30742056
   0.74324793  0.50060169  0.11737098
   0.48699364  0.74737879  0.26343467
   0.39214934  0.25000000  0.01612382
   0.10785066  0.25000000  0.01612382
   0.39214934  0.75000000  0.01612382
   0.10785066  0.75000000  0.01612382
   0.89214934  0.25000000  0.01612382
   0.60785066  0.25000000  0.01612382
   0.89214934  0.75000000  0.01612382
   0.60785066  0.75000000  0.01612382
Direct configuration=   180
   0.98567725 -0.00739780  0.20491969
   0.25000000  0.25000000  0.06862000
   0.23609340  0.34485484  0.29679712
   0.24048211 -0.00004987  0.13415052
  -0.01544699  0.28283999  0.24771741
  -0.01508358  0.50152199  0.18347534
   0.25000000  0.75000000  0.06862000
   0.23093362  0.63408551  0.29978243
   0.24253518  0.49893696  0.12589426
  -0.01319962  0.70589205  0.24793758
   0.49065440  0.99707960  0.20311456
   0.75000000  0.25000000  0.06862000
   0.73330720  0.35744513  0.29656181
   0.75079850 -0.00389593  0.13305067
   0.48415942  0.29531516  0.24779024
   0.48312581  0.49769572  0.18085772
   0.75000000  0.75000000  0.06862000
   0.72815737  0.63728278  0.29530415
   0.74620109  0.49563707  0.12627602
   0.48320006  0.70254331  0.24786398
   0.39214934  0.25000000  0.01612382
   0.10785066  0.25000000  0.01612382
   0.39214934  0.75000000  0.01612382
   0.10785066  0.75000000  0.01612382
   0.89214934  0.25000000  0.01612382
   0.60785066  0.25000000  0.01612382
   0.89214934  0.75000000  0.01612382
   0.60785066  0.75000000  0.01612382
Direct configuration=   190
   0.99126781 -0.00243964  0.19062973
   0.25000000  0.25000000  0.06862000
   0.22719749  0.36654538  0.28811426
   0.25058995 -0.00524348  0.12827722
  -0.01405814  0.24077637  0.25284761
  -0.01030261  0.49146011  0.16600253
   0.25000000  0.75000000  0.06862000
   0.23111754  0.63684633  0.28765702
   0.23636463  0.49877533  0.11167504
  -0.01715055  0.75776261  0.25582078
   0.48899745  0.99704941  0.18934480
   0.75000000  0.25000000  0.06862000
   0.73421524  0.36484192  0.28427337
   0.74196414  0.00166186  0.12943848
   0.48390571  0.23490789  0.25024530
   0.48941324  0.49714505  0.17139122
   0.75000000  0.75000000  0.06862000
   0.73569509  0.63324935  0.29120226
   0.73148585  0.50358996  0.11219540
   0.48220760  0.74923050  0.25048463
   0.39214934  0.25000000  0.01612382
   0.10785066  0.25000000  0.01612382
   0.39214934  0.75000000  0.01612382
   0.10785066  0.75000000  0.01612382
   0.89214934  0.25000000  0.01612382
   0.60785066  0.25000000  0.01612382
   0.89214934  0.75000000  0.01612382
   0.60785066  0.75000000  0.01612382
Direct configuration=   200
   0.99030002  0.00354456  0.19086212
   0.25000000  0.25000000  0.06862000
   0.24096464  0.36926826  0.29284136
   0.23641042  0.00304993  0.12439731
  -0.01360659  0.27763001  0.23915190
  -0.01425354  0.50250562  0.17894730
   0.25000000  0.75000000  0.06862000
   0.24170581  0.63331138  0.29206321
   0.24414714  0.50044903  0.12378935
  -0.01379641  0.73151631  0.24407765
   0.49096978  0.99645693  0.19163945
   0.75000000  0.25000000  0.06862000
   0.73578747  0.36361898  0.29292976
   0.74545862 -0.00243965  0.12461484
   0.48585370  0.27872340  0.24175969
   0.48806110  0.49952773  0.17640718
   0.75000000  0.75000000  0.06862000
   0.73586932  0.63142139  0.29419743
   0.74399413  0.49585980  0.12281339
   0.49320537  0.72333104  0.23934246
   0.39214934  0.25000000  0.01612382
   0.10785066  0.25000000  0.01612382
   0.39214934  0.75000000  0.01612382
   0.10785066  0.75000000  0.01612382
   0.89214934  0.25000000  0.01612382
   0.60785066  0.25000000  0.01612382
   0.89214934  0.75000000  0.01612382
   0.60785066  0.75000000  0.01612382
Direct configuration=   210
   0.98756298  0.00143193  0.19526704
   0.25000000  0.25000000  0.06862000
   0.24255009  0.35356723  0.29658246
   0.25003528 -0.00098980  0.13133963
  -0.00696692  0.26760964  0.25319084
  -0.00260324  0.50415249  0.17376506
   0.25000000  0.75000000  0.06862000
   0.24511102  0.64613528  0.29756397
   0.24433131  0.50043754  0.11631657
  -0.00356338  0.74208212  0.25341443
   0.49102557  1.00707914  0.19433920
   0.75000000  0.25000000  0.06862000
   0.74494635  0.36144285  0.29945371
   0.74305187  0.00392960  0.12973982
   0.49651623  0.26355320  0.25294027
   0.49795674  0.50238487  0.17522892
   0.75000000  0.75000000  0.06862000
   0.74430945  0.64590922  0.29476964
   0.74905985  0.50504390  0.11727886
   0.49229340  0.73842067  0.25224913
   0.39214934  0.25000000  0.01612382
   0.10785066  0.25000000  0.01612382
   0.39214934  0.75000000  0.01612382
   0.10785066  0.75000000  0.01612382
   0.89214934  0.25000000  0.01612382
   0.60785066  0.25000000  0.01612382
   0.89214934  0.75000000  0.01612382
   0.60785066  0.75000000  0.01612382
Direct configuration=   220
   1.00371375  0.00442794  0.20100236
   0.25000000  0.25000000  0.06862000
   0.24894059  0.37370005  0.30131305
   0.24492633  0.00329168  0.13297673
  -0.00074460  0.26482965  0.25694253
   0.00089653  0.49518037  0.18056059
   0.25000000  0.75000000  0.06862000
   0.24701980  0.63635241  0.30054478
   0.25527200  0.50051306  0.12440728
  -0.00297199  0.73784064  0.25637058
   0.50130014  0.99889946  0.20149414
   0.75000000  0.25000000  0.06862000
   0.74895395  0.37151341  0.29909423
   0.75037347 -0.00193932  0.13406488
   0.49932423  0.27093496  0.25551850
   0.49916162  0.50277470  0.18278498
   0.75000000  0.75000000  0.06862000
   0.75015507  0.63985877  0.30103818
   0.74768659  0.49633830  0.12387132
   0.49774587  0.73760257  0.25513764
   0.39214934  0.25000000  0.01612382
   0.10785066  0.25000000  0.01612382
   0.39214934  0.75000000  0.01612382
   0.10785066  0.75000000  0.01612382
   0.89214934  0.25000000  0.01612382
   0.60785066  0.25000000  0.01612382
   0.89214934  0.75000000  0.01612382
   0.60785066  0.75000000  0.01612382
Direct configuration=   230
   1.00163205 -0.00337143  0.19842851
   0.25000000  0.25000000  0.06862000
   0.25353176  0.36764896  0.30468761
   0.25786945 -0.00289910  0.13107274
   0.00425457  0.27454394  0.25533670
   0.00009920  0.50435911  0.18398823
   0.25000000  0.75000000  0.06862000
   0.25358962  0.64222784  0.30441916
   0.24712207  0.50004807  0.12333281
   0.00360014  0.73267173  0.25447149
   0.50102986  1.00330002  0.19790041
   0.75000000  0.25000000  0.06862000
   0.75259032  0.36634846  0.30371678
   0.75435217  0.00138450  0.13230601
   0.50084711  0.27123730  0.25556517
   0.50163318  0.50112681  0.18204825
   0.75000000  0.75000000  0.06862000
   0.75026976  0.63770809  0.30538555
   0.75484924  0.50302699  0.12349926
   0.50334662  0.73177802  0.25506304
   0.39214934  0.25000000  0.01612382
   0.10785066  0.25000000  0.01612382
   0.39214934  0.75000000  0.01612382
   0.10785066  0.75000000  0.01612382
   0.89214934  0.25000000  0.01612382
   0.60785066  0.25000000  0.01612382
   0.89214934  0.75000000  0.01612382
   0.60785066  0.75000000  0.01612382
Direct configuration=   240
   1.00514039  0.00626343  0.19711975
   0.25000000  0.25000000  0.06862000
   0.25392756  0.35973646  0.29979759
   0.24879077  0.00280755  0.13079378
   0.00280085  0.26608628  0.25465026
   0.00373209  0.50004449  0.17925119
   0.25000000  0.75000000  0.06862000
   0.25523674  0.64237043  0.30054541
   0.25443283  0.50097876  0.12130795
   0.00375939  0.73749506  0.25605110
   0.50612348  0.99957453  0.19742779
   0.75000000  0.25000000  0.06862000
   0.75328611  0.36016011  0.30147645
   0.75029886 -0.00005047  0.12978413
   0.50587206  0.26661670  0.25489194
   0.50221016  0.50175369  0.18049657
   0.75000000  0.75000000  0.06862000
   0.75541486  0.64289037  0.29932390
   0.74739240  0.49890126  0.12133258
   0.50414583  0.73691669  0.25450670
   0.39214934  0.25000000  0.01612382
   0.10785066  0.25000000  0.01612382
   0.39214934  0.75000000  0.01612382
   0.10785066  0.75000000  0.01612382
   0.89214934  0.25000000  0.01612382
   0.60785066  0.25000000  0.01612382
   0.89214934  0.75000000  0.01612382
   0.60785066  0.75000000  0.01612382
Direct configuration=   250
   0.99973574 -0.00270304  0.19708790
   0.25000000  0.25000000  0.06862000
   0.25396358  0.36584352  0.29674841
   0.25241531 -0.00029826  0.13191912
   0.00388725  0.27285923  0.24974706
   0.00159670  0.50217688  0.17963186
   0.25000000  0.75000000  0.06862000
   0.25382855  0.63232673  0.29659220
   0.25078755  0.49950502  0.12231172
   0.00459554  0.73107356  0.24924269
   0.50041482  1.00170116  0.19658034
   0.75000000  0.25000000  0.06862000
   0.75624233  0.36692864  0.29654698
   0.75258995  0.00061791  0.13149934
   0.50324826  0.27073959  0.25006168
   0.50349283  0.49937965  0.17935520
   0.75000000  0.75000000  0.06862000
   0.75485222  0.63507634  0.29700762
   0.75683352  0.50050749  0.12211217
   0.50403447  0.72871966  0.24987622
   0.39214934  0.25000000  0.01612382
   0.10785066  0.25000000  0.01612382
   0.39214934  0.75000000  0.01612382
   0.10785066  0.75000000  0.01612382
   0.89214934  0.25000000  0.01612382
   0.60785066  0.25000000  0.01612382
   0.89214934  0.75000000  0.01612382
   0.60785066  0.75000000  0.01612382
