  28  28   0   0
  0.1328654E+02  0.5052600E-09  0.5052600E-09  0.1457270E-08  0.5000000E-15
   1.0000000000000000E-004
  CAR 
 C(100)                                  
     10.81821829    -22.36705597  301      0.69670964      1.00000000
    -22.367  0.0000E+00  0.0000E+00
    -22.256  0.0000E+00  0.0000E+00
    -22.146  0.0000E+00  0.0000E+00
    -22.035  0.0000E+00  0.0000E+00
    -21.925  0.0000E+00  0.0000E+00
    -21.814  0.0000E+00  0.0000E+00
    -21.703  0.0000E+00  0.0000E+00
    -21.593  0.0000E+00  0.0000E+00
    -21.482  0.0000E+00  0.0000E+00
    -21.371  0.0000E+00  0.0000E+00
    -21.261  0.0000E+00  0.0000E+00
    -21.150  0.0000E+00  0.0000E+00
    -21.040  0.0000E+00  0.0000E+00
    -20.929  0.0000E+00  0.0000E+00
    -20.818  0.0000E+00  0.0000E+00
    -20.708  0.0000E+00  0.0000E+00
    -20.597  0.0000E+00  0.0000E+00
    -20.487  0.0000E+00  0.0000E+00
    -20.376  0.0000E+00  0.0000E+00
    -20.265  0.5467E+00  0.2781E-01
    -20.155  0.1141E+01  0.1212E+00
    -20.044  0.1736E+01  0.2803E+00
    -19.933  0.2646E+01  0.5685E+00
    -19.823  0.3797E+01  0.9105E+00
    -19.712  0.3199E+01  0.1297E+01
    -19.602  0.2601E+01  0.1618E+01
    -19.491  0.2009E+01  0.2000E+01
    -19.380  0.0000E+00  0.2000E+01
    -19.270  0.0000E+00  0.2000E+01
    -19.159  0.0000E+00  0.2000E+01
    -19.049  0.0000E+00  0.2000E+01
    -18.938  0.0000E+00  0.2000E+01
    -18.827  0.0000E+00  0.2000E+01
    -18.717  0.0000E+00  0.2000E+01
    -18.606  0.0000E+00  0.2000E+01
    -18.495  0.0000E+00  0.2000E+01
    -18.385  0.0000E+00  0.2000E+01
    -18.274  0.2796E+01  0.2201E+01
    -18.164  0.4430E+01  0.2601E+01
    -18.053  0.1420E+02  0.3701E+01
    -17.942  0.2009E+01  0.4000E+01
    -17.832  0.0000E+00  0.4000E+01
    -17.721  0.0000E+00  0.4000E+01
    -17.610  0.0000E+00  0.4000E+01
    -17.500  0.9939E+01  0.5094E+01
    -17.389  0.8436E+00  0.5452E+01
    -17.279  0.7717E+00  0.5541E+01
    -17.168  0.6999E+00  0.5623E+01
    -17.057  0.6281E+00  0.5696E+01
    -16.947  0.5562E+00  0.5762E+01
    -16.836  0.3648E+01  0.6132E+01
    -16.726  0.1757E+01  0.6320E+01
    -16.615  0.1874E+01  0.6521E+01
    -16.504  0.1992E+01  0.6735E+01
    -16.394  0.2109E+01  0.6962E+01
    -16.283  0.2227E+01  0.7201E+01
    -16.172  0.5288E+01  0.7665E+01
    -16.062  0.4031E+01  0.8069E+01
    -15.951  0.4087E+01  0.8519E+01
    -15.841  0.4113E+01  0.8973E+01
    -15.730  0.3389E+01  0.9409E+01
    -15.619  0.1921E+01  0.9661E+01
    -15.509  0.6733E+01  0.1023E+02
    -15.398  0.5714E+01  0.1081E+02
    -15.288  0.2545E+01  0.1130E+02
    -15.177  0.2063E+01  0.1156E+02
    -15.066  0.1581E+01  0.1176E+02
    -14.956  0.1099E+01  0.1191E+02
    -14.845  0.3397E+01  0.1226E+02
    -14.734  0.1744E+01  0.1243E+02
    -14.624  0.2100E+01  0.1265E+02
    -14.513  0.2457E+01  0.1290E+02
    -14.403  0.2813E+01  0.1319E+02
    -14.292  0.2907E+01  0.1352E+02
    -14.181  0.1977E+01  0.1379E+02
    -14.071  0.1842E+01  0.1400E+02
    -13.960  0.1974E+01  0.1420E+02
    -13.850  0.3128E+01  0.1448E+02
    -13.739  0.9913E+01  0.1508E+02
    -13.628  0.1014E+02  0.1648E+02
    -13.518  0.4151E+01  0.1693E+02
    -13.407  0.4632E+01  0.1741E+02
    -13.296  0.4202E+01  0.1790E+02
    -13.186  0.3773E+01  0.1834E+02
    -13.075  0.4738E+01  0.1885E+02
    -12.965  0.3336E+01  0.1919E+02
    -12.854  0.4896E+01  0.1962E+02
    -12.743  0.4829E+01  0.2016E+02
    -12.633  0.5751E+01  0.2091E+02
    -12.522  0.3486E+01  0.2131E+02
    -12.411  0.3251E+01  0.2172E+02
    -12.301  0.1404E+01  0.2185E+02
    -12.190  0.1342E+01  0.2200E+02
    -12.080  0.1463E+01  0.2216E+02
    -11.969  0.1584E+01  0.2233E+02
    -11.858  0.1705E+01  0.2251E+02
    -11.748  0.1937E+01  0.2271E+02
    -11.637  0.3122E+01  0.2294E+02
    -11.527  0.5966E+01  0.2349E+02
    -11.416  0.5119E+01  0.2411E+02
    -11.305  0.4374E+01  0.2475E+02
    -11.195  0.2471E+01  0.2502E+02
    -11.084  0.4314E+01  0.2550E+02
    -10.973  0.2305E+01  0.2575E+02
    -10.863  0.2343E+01  0.2601E+02
    -10.752  0.2381E+01  0.2627E+02
    -10.642  0.2378E+01  0.2654E+02
    -10.531  0.2572E+01  0.2681E+02
    -10.420  0.2767E+01  0.2711E+02
    -10.310  0.4036E+01  0.2756E+02
    -10.199  0.3596E+01  0.2798E+02
    -10.089  0.3306E+01  0.2848E+02
     -9.978  0.5949E+01  0.2879E+02
     -9.867  0.8914E+01  0.2976E+02
     -9.757  0.1945E+01  0.3039E+02
     -9.646  0.4118E+01  0.3078E+02
     -9.535  0.6482E+01  0.3134E+02
     -9.425  0.6421E+01  0.3205E+02
     -9.314  0.6206E+01  0.3294E+02
     -9.204  0.6667E+01  0.3352E+02
     -9.093  0.8223E+01  0.3427E+02
     -8.982  0.6261E+01  0.3513E+02
     -8.872  0.3824E+01  0.3557E+02
     -8.761  0.4084E+01  0.3604E+02
     -8.650  0.3635E+01  0.3659E+02
     -8.540  0.2987E+01  0.3680E+02
     -8.429  0.3004E+01  0.3713E+02
     -8.319  0.3021E+01  0.3746E+02
     -8.208  0.5459E+01  0.3806E+02
     -8.097  0.3884E+01  0.3844E+02
     -7.987  0.4677E+01  0.3895E+02
     -7.876  0.3213E+01  0.3932E+02
     -7.766  0.3213E+01  0.3967E+02
     -7.655  0.4447E+01  0.4008E+02
     -7.544  0.7546E+01  0.4091E+02
     -7.434  0.6156E+01  0.4168E+02
     -7.323  0.8811E+01  0.4272E+02
     -7.212  0.7945E+01  0.4367E+02
     -7.102  0.1296E+01  0.4385E+02
     -6.991  0.8869E+01  0.4452E+02
     -6.881  0.4740E+01  0.4527E+02
     -6.770  0.2448E+01  0.4573E+02
     -6.659  0.1163E+02  0.4675E+02
     -6.549  0.4318E+01  0.4730E+02
     -6.438  0.3967E+01  0.4777E+02
     -6.328  0.0000E+00  0.4800E+02
     -6.217  0.1733E+01  0.4803E+02
     -6.106  0.1146E+02  0.4869E+02
     -5.996  0.8146E+01  0.5002E+02
     -5.885  0.1412E+02  0.5122E+02
     -5.774  0.2678E+02  0.5223E+02
     -5.664  0.1470E+02  0.5407E+02
     -5.553  0.1059E+02  0.5490E+02
     -5.443  0.1101E+02  0.5633E+02
     -5.332  0.6557E+01  0.5720E+02
     -5.221  0.2478E+01  0.5771E+02
     -5.111  0.5685E+01  0.5821E+02
     -5.000  0.2879E+01  0.5856E+02
     -4.889  0.3618E+01  0.5892E+02
     -4.779  0.7793E+01  0.5959E+02
     -4.668  0.7059E+01  0.6032E+02
     -4.558  0.1534E+02  0.6166E+02
     -4.447  0.7966E+01  0.6295E+02
     -4.336  0.5225E+01  0.6372E+02
     -4.226  0.7809E+01  0.6467E+02
     -4.115  0.8639E+01  0.6574E+02
     -4.005  0.7113E+01  0.6650E+02
     -3.894  0.9280E+01  0.6736E+02
     -3.783  0.6375E+01  0.6817E+02
     -3.673  0.3782E+01  0.6878E+02
     -3.562  0.1111E+02  0.6949E+02
     -3.451  0.8218E+01  0.7054E+02
     -3.341  0.4381E+01  0.7115E+02
     -3.230  0.2217E+03  0.7160E+02
     -3.120  0.6925E+01  0.7262E+02
     -3.009  0.1055E+02  0.7333E+02
     -2.898  0.7228E+01  0.7439E+02
     -2.788  0.9156E+01  0.7515E+02
     -2.677  0.8339E+01  0.7616E+02
     -2.567  0.4491E+01  0.7686E+02
     -2.456  0.4143E+01  0.7734E+02
     -2.345  0.3795E+01  0.7778E+02
     -2.235  0.3543E+01  0.7819E+02
     -2.124  0.3395E+01  0.7857E+02
     -2.013  0.3355E+01  0.7894E+02
     -1.903  0.1797E+01  0.7923E+02
     -1.792  0.1844E+01  0.7943E+02
     -1.682  0.7335E+01  0.7990E+02
     -1.571  0.5519E+01  0.8070E+02
     -1.460  0.2802E+01  0.8105E+02
     -1.350  0.1971E+01  0.8131E+02
     -1.239  0.8883E+01  0.8222E+02
     -1.128  0.2847E+01  0.8254E+02
     -1.018  0.2112E+01  0.8281E+02
     -0.907  0.8892E+00  0.8299E+02
     -0.797  0.8880E+00  0.8309E+02
     -0.686  0.2944E+01  0.8331E+02
     -0.575  0.3376E+01  0.8366E+02
     -0.465  0.4372E+01  0.8422E+02
     -0.354  0.2365E+01  0.8449E+02
     -0.244  0.2367E+01  0.8475E+02
     -0.133  0.2369E+01  0.8501E+02
     -0.022  0.2371E+01  0.8527E+02
      0.088  0.2251E+01  0.8553E+02
      0.199  0.2047E+01  0.8577E+02
      0.310  0.1213E+01  0.8596E+02
      0.420  0.3045E+01  0.8605E+02
      0.531  0.6019E+01  0.8655E+02
      0.641  0.1264E+02  0.8772E+02
      0.752  0.0000E+00  0.8800E+02
      0.863  0.0000E+00  0.8800E+02
      0.973  0.0000E+00  0.8800E+02
      1.084  0.0000E+00  0.8800E+02
      1.194  0.0000E+00  0.8800E+02
      1.305  0.0000E+00  0.8800E+02
      1.416  0.0000E+00  0.8800E+02
      1.526  0.0000E+00  0.8800E+02
      1.637  0.0000E+00  0.8800E+02
      1.748  0.0000E+00  0.8800E+02
      1.858  0.0000E+00  0.8800E+02
      1.969  0.3182E+01  0.8806E+02
      2.079  0.4090E+01  0.8851E+02
      2.190  0.4517E+01  0.8898E+02
      2.301  0.7060E+01  0.9010E+02
      2.411  0.1644E+01  0.9024E+02
      2.522  0.3924E+01  0.9053E+02
      2.633  0.4383E+01  0.9098E+02
      2.743  0.7237E+01  0.9201E+02
      2.854  0.2640E+01  0.9222E+02
      2.964  0.4071E+01  0.9259E+02
      3.075  0.8084E+01  0.9339E+02
      3.186  0.2009E+01  0.9400E+02
      3.296  0.0000E+00  0.9400E+02
      3.407  0.0000E+00  0.9400E+02
      3.517  0.0000E+00  0.9400E+02
      3.628  0.0000E+00  0.9400E+02
      3.739  0.0000E+00  0.9400E+02
      3.849  0.0000E+00  0.9400E+02
      3.960  0.1357E+01  0.9403E+02
      4.071  0.2734E+01  0.9425E+02
      4.181  0.4541E+01  0.9473E+02
      4.292  0.4432E+01  0.9523E+02
      4.402  0.3375E+01  0.9578E+02
      4.513  0.9340E+01  0.9673E+02
      4.624  0.2765E+01  0.9706E+02
      4.734  0.2257E+01  0.9734E+02
      4.845  0.2090E+01  0.9758E+02
      4.955  0.1557E+01  0.9779E+02
      5.066  0.5694E+01  0.9811E+02
      5.177  0.6903E+01  0.9882E+02
      5.287  0.7643E+01  0.9974E+02
      5.398  0.5007E+01  0.1003E+03
      5.509  0.4505E+01  0.1009E+03
      5.619  0.3269E+01  0.1012E+03
      5.730  0.7408E+01  0.1019E+03
      5.840  0.1949E+01  0.1025E+03
      5.951  0.2393E+01  0.1027E+03
      6.062  0.1350E+02  0.1038E+03
      6.172  0.5404E+01  0.1045E+03
      6.283  0.1162E+02  0.1057E+03
      6.394  0.4691E+01  0.1063E+03
      6.504  0.2643E+01  0.1066E+03
      6.615  0.7707E+01  0.1071E+03
      6.725  0.1405E+02  0.1085E+03
      6.836  0.7254E+01  0.1095E+03
      6.947  0.1027E+02  0.1108E+03
      7.057  0.5795E+01  0.1114E+03
      7.168  0.6748E+01  0.1121E+03
      7.278  0.1408E+02  0.1135E+03
      7.389  0.6579E+01  0.1143E+03
      7.500  0.3316E+01  0.1149E+03
      7.610  0.8920E+01  0.1158E+03
      7.721  0.5341E+01  0.1164E+03
      7.832  0.5691E+01  0.1170E+03
      7.942  0.9164E+01  0.1178E+03
      8.053  0.1268E+02  0.1190E+03
      8.163  0.1490E+02  0.1209E+03
      8.274  0.9396E+01  0.1222E+03
      8.385  0.1083E+02  0.1232E+03
      8.495  0.1193E+02  0.1245E+03
      8.606  0.1373E+02  0.1261E+03
      8.716  0.8659E+01  0.1273E+03
      8.827  0.2009E+01  0.1280E+03
      8.938  0.0000E+00  0.1280E+03
      9.048  0.0000E+00  0.1280E+03
      9.159  0.0000E+00  0.1280E+03
      9.270  0.0000E+00  0.1280E+03
      9.380  0.0000E+00  0.1280E+03
      9.491  0.0000E+00  0.1280E+03
      9.601  0.0000E+00  0.1280E+03
      9.712  0.0000E+00  0.1280E+03
      9.823  0.0000E+00  0.1280E+03
      9.933  0.0000E+00  0.1280E+03
     10.044  0.0000E+00  0.1280E+03
     10.155  0.0000E+00  0.1280E+03
     10.265  0.0000E+00  0.1280E+03
     10.376  0.0000E+00  0.1280E+03
     10.486  0.0000E+00  0.1280E+03
     10.597  0.0000E+00  0.1280E+03
     10.708  0.0000E+00  0.1280E+03
     10.818  0.0000E+00  0.1280E+03
