   28   28    1    1
  0.1328654E+02  0.5052600E-09  0.5052600E-09  0.1457270E-08  0.5000000E-15
   1.0000000000000000E-004
  CAR 
 carbon 100                              
     88      4     64

  1. kpoint:   0.1262379E-14  0.1262379E-14  0.1262379E-14  0.1111111E+00
   1      -20.3671    1.00
   2      -18.0631    1.00
   3      -16.0902    1.00
   4      -16.0575    1.00
   5      -15.8109    1.00
   6      -15.3354    1.00
   7      -14.3116    1.00
   8      -14.1833    1.00
   9      -14.0978    1.00
  10      -12.1969    1.00
  11      -11.8576    1.00
  12      -11.8010    1.00
  13      -11.5329    1.00
  14      -11.3012    1.00
  15      -11.0456    1.00
  16      -10.1555    1.00
  17       -9.5995    1.00
  18       -9.5445    1.00
  19       -9.5140    1.00
  20       -8.5797    1.00
  21       -8.1520    1.00
  22       -6.8715    1.00
  23       -6.5481    1.00
  24       -6.4473    1.00
  25       -6.2471    1.00
  26       -6.0108    1.00
  27       -5.8437    1.00
  28       -5.4710    1.00
  29       -5.3536    1.00
  30       -4.7301    1.00
  31       -4.5715    1.00
  32       -4.3788    1.00
  33       -3.5546    1.00
  34       -3.2707    1.00
  35       -2.7059    1.00
  36       -2.3311    1.00
  37       -2.1848    1.00
  38       -2.0313    1.00
  39       -1.8976    1.00
  40       -1.6614    1.00
  41       -1.1250    1.00
  42        0.0227    1.00
  43        0.2251    1.00
  44        0.6509    1.00
  45        1.9825    0.00
  46        2.1138    0.00
  47        3.0474    0.00
  48        4.7248    0.00
  49        4.8235    0.00
  50        5.0761    0.00
  51        5.1340    0.00
  52        5.2761    0.00
  53        5.4430    0.00
  54        5.9988    0.00
  55        6.1151    0.00
  56        6.6406    0.00
  57        7.3529    0.00
  58        7.4776    0.00
  59        7.4821    0.00
  60        8.0137    0.00
  61        8.0997    0.00
  62        8.2973    0.00
  63        8.3254    0.00
  64        8.8182    0.00

  2. kpoint:   0.3333333E+00  0.1262379E-14  0.1262379E-14  0.2222222E+00
   1      -19.8621    1.00
   2      -18.3706    1.00
   3      -17.5792    1.00
   4      -16.2201    1.00
   5      -15.3425    1.00
   6      -14.8453    1.00
   7      -14.0113    1.00
   8      -13.7089    1.00
   9      -13.6334    1.00
  10      -13.4343    1.00
  11      -12.8878    1.00
  12      -12.3284    1.00
  13      -11.6388    1.00
  14      -10.7000    1.00
  15      -10.0141    1.00
  16       -9.6957    1.00
  17       -9.5737    1.00
  18       -9.0983    1.00
  19       -7.9785    1.00
  20       -7.6497    1.00
  21       -7.3574    1.00
  22       -7.2659    1.00
  23       -6.9111    1.00
  24       -6.6851    1.00
  25       -6.0827    1.00
  26       -5.9335    1.00
  27       -5.7750    1.00
  28       -5.7298    1.00
  29       -5.5862    1.00
  30       -4.4584    1.00
  31       -4.3011    1.00
  32       -4.2398    1.00
  33       -3.9702    1.00
  34       -3.7862    1.00
  35       -3.3735    1.00
  36       -3.3330    1.00
  37       -2.9734    1.00
  38       -2.6899    1.00
  39       -1.9785    1.00
  40       -1.7619    1.00
  41       -1.7370    1.00
  42       -1.2532    1.00
  43       -0.7480    1.00
  44        0.4041    1.00
  45        2.2941    0.00
  46        2.6421    0.00
  47        3.0047    0.00
  48        4.0868    0.00
  49        5.1535    0.00
  50        5.5380    0.00
  51        5.8361    0.00
  52        6.1788    0.00
  53        6.2081    0.00
  54        6.5788    0.00
  55        6.6164    0.00
  56        6.7307    0.00
  57        6.8240    0.00
  58        6.9960    0.00
  59        7.5716    0.00
  60        7.7351    0.00
  61        7.8033    0.00
  62        8.0111    0.00
  63        8.4968    0.00
  64        8.5738    0.00

  3. kpoint:   0.1262379E-14  0.3333333E+00  0.1262379E-14  0.2222222E+00
   1      -20.0392    1.00
   2      -18.0973    1.00
   3      -17.3984    1.00
   4      -15.7398    1.00
   5      -15.7205    1.00
   6      -15.3379    1.00
   7      -14.3048    1.00
   8      -13.7769    1.00
   9      -13.6432    1.00
  10      -13.6314    1.00
  11      -13.1082    1.00
  12      -11.6033    1.00
  13      -10.6914    1.00
  14      -10.4079    1.00
  15       -9.7702    1.00
  16       -9.7475    1.00
  17       -9.2469    1.00
  18       -9.1236    1.00
  19       -8.8530    1.00
  20       -8.5436    1.00
  21       -8.0647    1.00
  22       -7.7057    1.00
  23       -6.7928    1.00
  24       -6.3512    1.00
  25       -6.1382    1.00
  26       -5.9329    1.00
  27       -5.2724    1.00
  28       -5.2501    1.00
  29       -5.0574    1.00
  30       -4.7968    1.00
  31       -4.5289    1.00
  32       -4.4735    1.00
  33       -4.1737    1.00
  34       -3.9505    1.00
  35       -3.7104    1.00
  36       -3.6074    1.00
  37       -3.2312    1.00
  38       -3.0431    1.00
  39       -2.5727    1.00
  40       -1.3835    1.00
  41       -0.9309    1.00
  42        0.3473    1.00
  43        0.3568    1.00
  44        0.6748    1.00
  45        1.9407    0.00
  46        2.4836    0.00
  47        2.7352    0.00
  48        3.9379    0.00
  49        4.5011    0.00
  50        5.0119    0.00
  51        5.1310    0.00
  52        6.0092    0.00
  53        6.4302    0.00
  54        6.7712    0.00
  55        6.8963    0.00
  56        7.1744    0.00
  57        7.4955    0.00
  58        7.7502    0.00
  59        7.8559    0.00
  60        8.0627    0.00
  61        8.0643    0.00
  62        8.1647    0.00
  63        8.3344    0.00
  64        8.4328    0.00

  4. kpoint:   0.3333333E+00  0.3333333E+00  0.1262379E-14  0.4444444E+00
   1      -19.5357    1.00
   2      -18.0467    1.00
   3      -17.6053    1.00
   4      -16.9200    1.00
   5      -16.1847    1.00
   6      -15.5645    1.00
   7      -14.8729    1.00
   8      -13.6726    1.00
   9      -13.1534    1.00
  10      -12.6402    1.00
  11      -12.5042    1.00
  12      -11.3530    1.00
  13      -11.1902    1.00
  14      -10.1364    1.00
  15       -9.8924    1.00
  16       -9.3355    1.00
  17       -9.0517    1.00
  18       -8.6951    1.00
  19       -8.2871    1.00
  20       -7.5145    1.00
  21       -7.3944    1.00
  22       -7.2598    1.00
  23       -7.0524    1.00
  24       -6.6994    1.00
  25       -6.0387    1.00
  26       -5.8372    1.00
  27       -5.7512    1.00
  28       -5.6877    1.00
  29       -5.4688    1.00
  30       -5.1391    1.00
  31       -4.7911    1.00
  32       -4.6173    1.00
  33       -4.3137    1.00
  34       -4.2253    1.00
  35       -3.9035    1.00
  36       -3.5417    1.00
  37       -3.2292    1.00
  38       -2.9634    1.00
  39       -2.7892    1.00
  40       -2.7019    1.00
  41       -1.6403    1.00
  42       -1.2803    1.00
  43       -0.5029    1.00
  44        0.5742    1.00
  45        2.2738    0.00
  46        2.7419    0.00
  47        3.1367    0.00
  48        4.3484    0.00
  49        4.4169    0.00
  50        5.2307    0.00
  51        5.6838    0.00
  52        6.0387    0.00
  53        6.2268    0.00
  54        6.6886    0.00
  55        6.9041    0.00
  56        7.2128    0.00
  57        7.2690    0.00
  58        7.5525    0.00
  59        8.1356    0.00
  60        8.2032    0.00
  61        8.4050    0.00
  62        8.5953    0.00
  63        8.6590    0.00
  64        8.7731    0.00

  1. kpoint:   0.1262379E-14  0.1262379E-14  0.1262379E-14  0.1111111E+00
   1      -20.3671    0.00
   2      -18.0631    0.00
   3      -16.0902    0.00
   4      -16.0575    0.00
   5      -15.8109    0.00
   6      -15.3354    0.00
   7      -14.3116    0.00
   8      -14.1833    0.00
   9      -14.0978    0.00
  10      -12.1969    0.00
  11      -11.8576    0.00
  12      -11.8010    0.00
  13      -11.5329    0.00
  14      -11.3012    0.00
  15      -11.0456    0.00
  16      -10.1555    0.00
  17       -9.5995    0.00
  18       -9.5445    0.00
  19       -9.5140    0.00
  20       -8.5797    0.00
  21       -8.1520    0.00
  22       -6.8715    0.00
  23       -6.5481    0.00
  24       -6.4473    0.00
  25       -6.2471    0.00
  26       -6.0108    0.00
  27       -5.8437    0.00
  28       -5.4710    0.00
  29       -5.3536    0.00
  30       -4.7301    0.00
  31       -4.5715    0.00
  32       -4.3788    0.00
  33       -3.5546    0.00
  34       -3.2707    0.00
  35       -2.7059    0.00
  36       -2.3311    0.00
  37       -2.1848    0.00
  38       -2.0313    0.00
  39       -1.8976    0.00
  40       -1.6614    0.00
  41       -1.1250    0.00
  42        0.0227    0.00
  43        0.2251    0.00
  44        0.6509    0.00
  45        1.9825    1.00
  46        2.1138    1.00
  47        3.0474    1.00
  48        4.7248    0.00
  49        4.8235    0.00
  50        5.0761    0.00
  51        5.1340    0.00
  52        5.2761    0.00
  53        5.4430    0.00
  54        5.9988    0.00
  55        6.1151    0.00
  56        6.6406    0.00
  57        7.3529    0.00
  58        7.4776    0.00
  59        7.4821    0.00
  60        8.0137    0.00
  61        8.0997    0.00
  62        8.2973    0.00
  63        8.3254    0.00
  64        8.8182    0.00

  2. kpoint:   0.3333333E+00  0.1262379E-14  0.1262379E-14  0.2222222E+00
   1      -19.8621    0.00
   2      -18.3706    0.00
   3      -17.5792    0.00
   4      -16.2201    0.00
   5      -15.3425    0.00
   6      -14.8453    0.00
   7      -14.0113    0.00
   8      -13.7089    0.00
   9      -13.6334    0.00
  10      -13.4343    0.00
  11      -12.8878    0.00
  12      -12.3284    0.00
  13      -11.6388    0.00
  14      -10.7000    0.00
  15      -10.0141    0.00
  16       -9.6957    0.00
  17       -9.5737    0.00
  18       -9.0983    0.00
  19       -7.9785    0.00
  20       -7.6497    0.00
  21       -7.3574    0.00
  22       -7.2659    0.00
  23       -6.9111    0.00
  24       -6.6851    0.00
  25       -6.0827    0.00
  26       -5.9335    0.00
  27       -5.7750    0.00
  28       -5.7298    0.00
  29       -5.5862    0.00
  30       -4.4584    0.00
  31       -4.3011    0.00
  32       -4.2398    0.00
  33       -3.9702    0.00
  34       -3.7862    0.00
  35       -3.3735    0.00
  36       -3.3330    0.00
  37       -2.9734    0.00
  38       -2.6899    0.00
  39       -1.9785    0.00
  40       -1.7619    0.00
  41       -1.7370    0.00
  42       -1.2532    0.00
  43       -0.7480    0.00
  44        0.4041    0.00
  45        2.2941    1.00
  46        2.6421    1.00
  47        3.0047    1.00
  48        4.0868    0.00
  49        5.1535    0.00
  50        5.5380    0.00
  51        5.8361    0.00
  52        6.1788    0.00
  53        6.2081    0.00
  54        6.5788    0.00
  55        6.6164    0.00
  56        6.7307    0.00
  57        6.8240    0.00
  58        6.9960    0.00
  59        7.5716    0.00
  60        7.7351    0.00
  61        7.8033    0.00
  62        8.0111    0.00
  63        8.4968    0.00
  64        8.5738    0.00

  3. kpoint:   0.1262379E-14  0.3333333E+00  0.1262379E-14  0.2222222E+00
   1      -20.0392    0.00
   2      -18.0973    0.00
   3      -17.3984    0.00
   4      -15.7398    0.00
   5      -15.7205    0.00
   6      -15.3379    0.00
   7      -14.3048    0.00
   8      -13.7769    0.00
   9      -13.6432    0.00
  10      -13.6314    0.00
  11      -13.1082    0.00
  12      -11.6033    0.00
  13      -10.6914    0.00
  14      -10.4079    0.00
  15       -9.7702    0.00
  16       -9.7475    0.00
  17       -9.2469    0.00
  18       -9.1236    0.00
  19       -8.8530    0.00
  20       -8.5436    0.00
  21       -8.0647    0.00
  22       -7.7057    0.00
  23       -6.7928    0.00
  24       -6.3512    0.00
  25       -6.1382    0.00
  26       -5.9329    0.00
  27       -5.2724    0.00
  28       -5.2501    0.00
  29       -5.0574    0.00
  30       -4.7968    0.00
  31       -4.5289    0.00
  32       -4.4735    0.00
  33       -4.1737    0.00
  34       -3.9505    0.00
  35       -3.7104    0.00
  36       -3.6074    0.00
  37       -3.2312    0.00
  38       -3.0431    0.00
  39       -2.5727    0.00
  40       -1.3835    0.00
  41       -0.9309    0.00
  42        0.3473    0.00
  43        0.3568    0.00
  44        0.6748    0.00
  45        1.9407    1.00
  46        2.4836    1.00
  47        2.7352    1.00
  48        3.9379    0.00
  49        4.5011    0.00
  50        5.0119    0.00
  51        5.1310    0.00
  52        6.0092    0.00
  53        6.4302    0.00
  54        6.7712    0.00
  55        6.8963    0.00
  56        7.1744    0.00
  57        7.4955    0.00
  58        7.7502    0.00
  59        7.8559    0.00
  60        8.0627    0.00
  61        8.0643    0.00
  62        8.1647    0.00
  63        8.3344    0.00
  64        8.4328    0.00

  4. kpoint:   0.3333333E+00  0.3333333E+00  0.1262379E-14  0.4444444E+00
   1      -19.5357    0.00
   2      -18.0467    0.00
   3      -17.6053    0.00
   4      -16.9200    0.00
   5      -16.1847    0.00
   6      -15.5645    0.00
   7      -14.8729    0.00
   8      -13.6726    0.00
   9      -13.1534    0.00
  10      -12.6402    0.00
  11      -12.5042    0.00
  12      -11.3530    0.00
  13      -11.1902    0.00
  14      -10.1364    0.00
  15       -9.8924    0.00
  16       -9.3355    0.00
  17       -9.0517    0.00
  18       -8.6951    0.00
  19       -8.2871    0.00
  20       -7.5145    0.00
  21       -7.3944    0.00
  22       -7.2598    0.00
  23       -7.0524    0.00
  24       -6.6994    0.00
  25       -6.0387    0.00
  26       -5.8372    0.00
  27       -5.7512    0.00
  28       -5.6877    0.00
  29       -5.4688    0.00
  30       -5.1391    0.00
  31       -4.7911    0.00
  32       -4.6173    0.00
  33       -4.3137    0.00
  34       -4.2253    0.00
  35       -3.9035    0.00
  36       -3.5417    0.00
  37       -3.2292    0.00
  38       -2.9634    0.00
  39       -2.7892    0.00
  40       -2.7019    0.00
  41       -1.6403    0.00
  42       -1.2803    0.00
  43       -0.5029    0.00
  44        0.5742    0.00
  45        2.2738    1.00
  46        2.7419    1.00
  47        3.1367    1.00
  48        4.3484    0.00
  49        4.4169    0.00
  50        5.2307    0.00
  51        5.6838    0.00
  52        6.0387    0.00
  53        6.2268    0.00
  54        6.6886    0.00
  55        6.9041    0.00
  56        7.2128    0.00
  57        7.2690    0.00
  58        7.5525    0.00
  59        8.1356    0.00
  60        8.2032    0.00
  61        8.4050    0.00
  62        8.5953    0.00
  63        8.6590    0.00
  64        8.7731    0.00
