Automatically generated mesh
       4
Reciprocal lattice
    0.00000000000000    0.00000000000000    0.00000000000000             1
    0.33333333333334    0.00000000000000    0.00000000000000             2
    0.00000000000000    0.33333333333334    0.00000000000000             2
    0.33333333333334    0.33333333333334    0.00000000000000             4
Tetrahedra
        19    0.01851851851852
         4         3         3         4         4
         4         3         4         4         4
         4         3         3         3         4
         2         1         3         4         4
         2         1         2         4         4
         2         1         2         2         4
         2         1         3         3         4
         2         1         1         3         4
         2         1         1         2         4
         2         1         2         2         3
         2         2         2         3         4
         2         2         3         4         4
         2         1         1         2         3
         2         1         2         3         3
         2         2         3         3         4
         6         4         4         4         4
         4         2         4         4         4
         4         2         2         4         4
         4         2         2         2         4
