       N       E                     dE             d eps       ncg     rms          rms(c)
DAV:   1     0.703100942386E+03    0.70310E+03   -0.50037E+04   640   0.166E+03
DAV:   2    -0.119771506410E+03   -0.82287E+03   -0.77519E+03   896   0.317E+02
DAV:   3    -0.207449013520E+03   -0.87678E+02   -0.86727E+02   784   0.995E+01
DAV:   4    -0.209943011034E+03   -0.24940E+01   -0.24859E+01   880   0.192E+01
DAV:   5    -0.210017125600E+03   -0.74115E-01   -0.74054E-01   912   0.304E+00    0.217E+01
RMM:   6    -0.198934464716E+03    0.11083E+02   -0.11151E+01   642   0.102E+01    0.121E+01
RMM:   7    -0.195716722832E+03    0.32177E+01   -0.12667E+01   642   0.113E+01    0.401E+00
RMM:   8    -0.195490762907E+03    0.22596E+00   -0.12856E+00   648   0.401E+00    0.951E-01
RMM:   9    -0.195431399902E+03    0.59363E-01   -0.27962E-01   659   0.176E+00    0.517E-01
RMM:  10    -0.195410891333E+03    0.20509E-01   -0.95783E-02   674   0.948E-01    0.297E-01
RMM:  11    -0.195402285375E+03    0.86060E-02   -0.23592E-02   650   0.516E-01    0.232E-01
RMM:  12    -0.195395785731E+03    0.64996E-02   -0.11747E-02   660   0.311E-01    0.131E-01
RMM:  13    -0.195406564406E+03   -0.10779E-01   -0.25508E-02   645   0.360E-01    0.220E-01
RMM:  14    -0.195428428632E+03   -0.21864E-01   -0.23829E-02   671   0.358E-01    0.358E-01
RMM:  15    -0.195436512152E+03   -0.80835E-02   -0.57725E-03   745   0.197E-01    0.401E-01
RMM:  16    -0.195443025247E+03   -0.65131E-02   -0.12218E-03   596   0.920E-02    0.440E-01
RMM:  17    -0.195445551592E+03   -0.25263E-02   -0.18920E-03   642   0.128E-01    0.525E-01
RMM:  18    -0.195431193925E+03    0.14358E-01   -0.46942E-03   692   0.147E-01    0.546E-01
RMM:  19    -0.195422145040E+03    0.90489E-02   -0.30523E-03   651   0.117E-01    0.502E-01
RMM:  20    -0.195422201688E+03   -0.56647E-04   -0.18486E-04   451   0.515E-02
   1 F= -.19542220E+03 E0= -.19542706E+03  d E =-.195422E+03
       N       E                     dE             d eps       ncg     rms          rms(c)
DAV:   1    -0.195413305281E+03    0.88398E-02   -0.11000E+00   768   0.432E+00    0.509E-01
RMM:   2    -0.195395957673E+03    0.17348E-01   -0.78441E-02   652   0.821E-01    0.253E-01
RMM:   3    -0.195394999002E+03    0.95867E-03   -0.16277E-02   679   0.405E-01    0.128E-01
RMM:   4    -0.195394911820E+03    0.87181E-04   -0.34681E-03   663   0.184E-01    0.508E-02
RMM:   5    -0.195395237072E+03   -0.32525E-03   -0.93460E-04   594   0.927E-02    0.209E-02
RMM:   6    -0.195395492365E+03   -0.25529E-03   -0.20995E-04   454   0.466E-02    0.110E-02
RMM:   7    -0.195395713882E+03   -0.22152E-03   -0.77328E-05   429   0.275E-02    0.606E-03
RMM:   8    -0.195395860528E+03   -0.14665E-03   -0.43811E-05   419   0.189E-02    0.362E-03
RMM:   9    -0.195395949075E+03   -0.88547E-04   -0.21122E-05   384   0.128E-02
   2 F= -.19539595E+03 E0= -.19540010E+03  d E =0.262526E-01
       N       E                     dE             d eps       ncg     rms          rms(c)
DAV:   1    -0.195401312797E+03   -0.54523E-02   -0.46629E-01   760   0.281E+00    0.121E-01
RMM:   2    -0.195401992269E+03   -0.67947E-03   -0.96953E-03   647   0.406E-01    0.801E-02
RMM:   3    -0.195402053682E+03   -0.61413E-04   -0.16921E-03   661   0.162E-01    0.409E-02
RMM:   4    -0.195402065111E+03   -0.11429E-04   -0.35240E-04   497   0.743E-02
   3 F= -.19540207E+03 E0= -.19540628E+03  d E =-.611604E-02
       N       E                     dE             d eps       ncg     rms          rms(c)
DAV:   1    -0.195401224320E+03    0.82936E-03   -0.30009E-01   760   0.224E+00    0.105E-01
RMM:   2    -0.195401557059E+03   -0.33274E-03   -0.52974E-03   645   0.308E-01    0.659E-02
RMM:   3    -0.195401571166E+03   -0.14107E-04   -0.93858E-04   630   0.126E-01
   4 F= -.19540157E+03 E0= -.19540578E+03  d E =0.493945E-03
       N       E                     dE             d eps       ncg     rms          rms(c)
DAV:   1    -0.195402759774E+03   -0.12027E-02   -0.11473E-01   720   0.139E+00    0.635E-02
RMM:   2    -0.195402870178E+03   -0.11040E-03   -0.21245E-03   643   0.192E-01    0.403E-02
RMM:   3    -0.195402866390E+03    0.37875E-05   -0.37936E-04   491   0.781E-02
   5 F= -.19540287E+03 E0= -.19540707E+03  d E =-.129522E-02
       N       E                     dE             d eps       ncg     rms          rms(c)
DAV:   1    -0.195402834328E+03    0.35850E-04   -0.56765E-02   720   0.986E-01    0.475E-02
RMM:   2    -0.195402889643E+03   -0.55315E-04   -0.91064E-04   636   0.127E-01
   6 F= -.19540289E+03 E0= -.19540711E+03  d E =-.232524E-04
       N       E                     dE             d eps       ncg     rms          rms(c)
DAV:   1    -0.195403132542E+03   -0.29821E-03   -0.20232E-02   720   0.586E-01    0.237E-02
RMM:   2    -0.195403157442E+03   -0.24899E-04   -0.33580E-04   482   0.778E-02
   7 F= -.19540316E+03 E0= -.19540736E+03  d E =-.267799E-03
