 vasp.6.4.2 20Jul23 (build Oct 18 2023 12:49:41) complex                         
 executed on             LinuxGNU date 2025.06.06  13:26:45
 running    4 mpi-ranks, with    1 threads/rank, on    1 nodes
 distrk:  each k-point on    4 cores,    1 groups
 distr:  one band on NCORE=   1 cores,    4 groups


--------------------------------------------------------------------------------------------------------


 INCAR:
   SYSTEM = carbon 100
   ISMEAR = 1
   SIGMA = 0.2
   ENCUT = 800
   LREAL = auto
   ALGO = F
   IDIPOL = 3
   LDIPOL = T
   LCHARG = .FALSE.
   NSW = 30
   ISIF = 2
   IBRION = 1
   POTIM = 0.5
   EDIFFG = -0.025
   ADDGRID = T
   NCORE = 1
   NSIM = 4

 POTCAR:    PAW_PBE C 08Apr2002                   
 POTCAR:    PAW_PBE H 15Jun2001                   
 POTCAR:    PAW_PBE C 08Apr2002                   
   SHA256 =  253f7b50bb8d59471dbedb8285d89021f4a42ed1a2c5d38a03a736e69125dd95 C/POTCAR              
   COPYR  = (c) Copyright 08Apr2002 Georg Kresse                                                    
   COPYR  = This file is part of the software VASP. Any use, copying, and all other rights are regul
   COPYR  = If you do not have a valid VASP license, you may not use, copy or distribute this file. 
   VRHFIN =C: s2p2                                                                                  
   LEXCH  = PE                                                                                      
   EATOM  =   147.1560 eV,   10.8157 Ry                                                             
                                                                                                    
   TITEL  = PAW_PBE C 08Apr2002                                                                     
   LULTRA =        F    use ultrasoft PP ?                                                          
   IUNSCR =        1    unscreen: 0-lin 1-nonlin 2-no                                               
   RPACOR =    1.200    partial core radius                                                         
   POMASS =   12.011; ZVAL   =    4.000    mass and valenz                                          
   RCORE  =    1.500    outmost cutoff radius                                                       
   RWIGS  =    1.630; RWIGS  =    0.863    wigner-seitz radius (au A)                               
   ENMAX  =  400.000; ENMIN  =  300.000 eV                                                          
   ICORE  =        2    local potential                                                             
   LCOR   =        T    correct aug charges                                                         
   LPAW   =        T    paw PP                                                                      
   EAUG   =  644.873                                                                                
   DEXC   =    0.000                                                                                
   RMAX   =    1.529    core radius for proj-oper                                                   
   RAUG   =    1.300    factor for augmentation sphere                                              
   RDEP   =    1.501    radius for radial grids                                                     
   RDEPT  =    1.300    core radius for aug-charge                                                  
                                                                                                    
   Atomic configuration                                                                             
    4 entries                                                                                       
     n  l   j            E        occ.                                                              
     1  0  0.50      -273.3789   2.0000                                                             
     2  0  0.50       -13.7508   2.0000                                                             
     2  1  0.50        -5.2854   2.0000                                                             
     3  2  1.50        -5.4423   0.0000                                                             
   Description                                                                                      
     l       E           TYP  RCUT    TYP  RCUT                                                     
     0    -13.7508458     23  1.200                                                                 
     0     -8.2022199     23  1.200                                                                 
     1     -5.2854383     23  1.500                                                                 
     1     34.0145650     23  1.500                                                                 
     2     -5.4423304      7  1.500                                                                 
  local pseudopotential read in
  partial core-charges read in
  partial kinetic energy density read in
  atomic valenz-charges read in
  non local Contribution for L=           0  read in
    real space projection operators read in
  non local Contribution for L=           0  read in
    real space projection operators read in
  non local Contribution for L=           1  read in
    real space projection operators read in
  non local Contribution for L=           1  read in
    real space projection operators read in
    PAW grid and wavefunctions read in

   number of l-projection  operators is LMAX  =           4
   number of lm-projection operators is LMMAX =           8

 POTCAR:    PAW_PBE H 15Jun2001                   
   SHA256 =  030f79b5d3ab3cf0e668861823c8fb652ff669f3e15e46930bd03bfd63a607b6 H/POTCAR              
   COPYR  = (c) Copyright 15Jun2001 Georg Kresse                                                    
   COPYR  = This file is part of the software VASP. Any use, copying, and all other rights are regul
   COPYR  = If you do not have a valid VASP license, you may not use, copy or distribute this file. 
   VRHFIN =H: ultrasoft test                                                                        
   LEXCH  = PE                                                                                      
   EATOM  =    12.4884 eV,    0.9179 Ry                                                             
                                                                                                    
   TITEL  = PAW_PBE H 15Jun2001                                                                     
   LULTRA =        F    use ultrasoft PP ?                                                          
   IUNSCR =        0    unscreen: 0-lin 1-nonlin 2-no                                               
   RPACOR =    0.000    partial core radius                                                         
   POMASS =    1.000; ZVAL   =    1.000    mass and valenz                                          
   RCORE  =    1.100    outmost cutoff radius                                                       
   RWIGS  =    0.700; RWIGS  =    0.370    wigner-seitz radius (au A)                               
   ENMAX  =  250.000; ENMIN  =  200.000 eV                                                          
   RCLOC  =    0.701    cutoff for local pot                                                        
   LCOR   =        T    correct aug charges                                                         
   LPAW   =        T    paw PP                                                                      
   EAUG   =  400.000                                                                                
   RMAX   =    1.123    core radius for proj-oper                                                   
   RAUG   =    1.200    factor for augmentation sphere                                              
   RDEP   =    1.112    radius for radial grids                                                     
   RDEPT  =    0.926    core radius for aug-charge                                                  
                                                                                                    
   Atomic configuration                                                                             
    2 entries                                                                                       
     n  l   j            E        occ.                                                              
     1  0  0.50        -6.4927   1.0000                                                             
     2  1  0.50        -3.4015   0.0000                                                             
   Description                                                                                      
     l       E           TYP  RCUT    TYP  RCUT                                                     
     0     -6.4927494     23  1.100                                                                 
     0      6.8029130     23  1.100                                                                 
     1     -4.0817478     23  1.100                                                                 
  local pseudopotential read in
  atomic valenz-charges read in
  non local Contribution for L=           0  read in
    real space projection operators read in
  non local Contribution for L=           0  read in
    real space projection operators read in
  non local Contribution for L=           1  read in
    real space projection operators read in
    PAW grid and wavefunctions read in

   number of l-projection  operators is LMAX  =           3
   number of lm-projection operators is LMMAX =           5

 -----------------------------------------------------------------------------
|                                                                             |
|               ----> ADVICE to this user running VASP <----                  |
|                                                                             |
|     You have a (more or less) 'small supercell' and for smaller cells       |
|     it is recommended to use the reciprocal-space projection scheme!        |
|     The real-space optimization is not efficient for small cells and it     |
|     is also less accurate ...                                               |
|     Therefore, set LREAL=.FALSE. in the INCAR file.                         |
|                                                                             |
 -----------------------------------------------------------------------------

 Optimization of the real space projectors (new method)

 maximal supplied QI-value         = 25.13
 optimisation between [QCUT,QGAM] = [ 14.33, 28.90] = [ 57.47,233.94] Ry 
 Optimized for a Real-space Cutoff    0.89 Angstroem

   l    n(q)    QCUT    max X(q) W(low)/X(q) W(high)/X(q)  e(spline) 
   0      8    14.326   115.676    0.20E-03    0.54E-03    0.88E-07
   0      8    14.326    87.132    0.19E-03    0.54E-03    0.88E-07
   1      7    14.326     4.429    0.49E-03    0.47E-03    0.10E-06
   1      7    14.326     2.733    0.38E-03    0.36E-03    0.91E-07
 Optimization of the real space projectors (new method)

 maximal supplied QI-value         = 34.20
 optimisation between [QCUT,QGAM] = [ 14.37, 28.73] = [ 57.79,231.16] Ry 
 Optimized for a Real-space Cutoff    0.92 Angstroem

   l    n(q)    QCUT    max X(q) W(low)/X(q) W(high)/X(q)  e(spline) 
   0      8    14.366    19.460    0.37E-03    0.44E-03    0.12E-06
   0      8    14.366    12.209    0.35E-03    0.42E-03    0.11E-06
   1      7    14.366     4.655    0.78E-04    0.25E-03    0.18E-06
  PAW_PBE C 08Apr2002                   :
 energy of atom  1       EATOM= -147.1560
 kinetic energy error for atom=    0.0016 (will be added to EATOM!!)
  PAW_PBE H 15Jun2001                   :
 energy of atom  2       EATOM=  -12.4884
 kinetic energy error for atom=    0.0002 (will be added to EATOM!!)


 POSCAR:  C  H
  positions in cartesian coordinates
  No initial velocities read in
 exchange correlation table for  LEXCH =        8
   RHO(1)=    0.500       N(1)  =     2000
   RHO(2)=  100.500       N(2)  =     4000



--------------------------------------------------------------------------------------------------------


 ion  position               nearest neighbor table
   1  0.000  0.000  0.191-   4 1.55   4 1.55   5 1.55   5 1.55
   2  0.500  0.500  0.069-   6 1.14   7 1.14   4 1.55   4 1.55
   3  0.500  0.500  0.314-   5 1.55   5 1.55
   4  0.500  0.000  0.130-   1 1.55   2 1.55   2 1.55   1 1.55
   5  0.000  0.500  0.252-   3 1.55   3 1.55   1 1.55   1 1.55
   6  0.868  0.500  0.023-   7 0.66   2 1.14
   7  0.132  0.500  0.023-   6 0.66   2 1.14

  LATTYP: Found a simple tetragonal cell.
 ALAT       =     2.5263000000
 C/A-ratio  =     5.7683964691
  
  Lattice vectors:
  
 A1 = (   2.5263000000,   0.0000000000,   0.0000000000)
 A2 = (   0.0000000000,   2.5263000000,   0.0000000000)
 A3 = (   0.0000000000,   0.0000000000,  14.5727000000)


Analysis of symmetry for initial positions (statically):
=====================================================================
 Subroutine PRICEL returns:
 Original cell was already a primitive cell.
 

 Routine SETGRP: Setting up the symmetry group for a 
 simple tetragonal supercell.


 Subroutine GETGRP returns: Found  4 space group operations
 (whereof  4 operations were pure point group operations)
 out of a pool of 16 trial point group operations.


The static configuration has the point symmetry C_2v.


Analysis of symmetry for dynamics (positions and initial velocities):
=====================================================================
 Subroutine PRICEL returns:
 Original cell was already a primitive cell.
 

 Routine SETGRP: Setting up the symmetry group for a 
 simple tetragonal supercell.


 Subroutine GETGRP returns: Found  4 space group operations
 (whereof  4 operations were pure point group operations)
 out of a pool of 16 trial point group operations.


The dynamic configuration has the point symmetry C_2v.


Analysis of constrained symmetry for selective dynamics:
=====================================================================
 Subroutine PRICEL returns:
 Original cell was already a primitive cell.
 

 Routine SETGRP: Setting up the symmetry group for a 
 simple tetragonal supercell.


 Subroutine GETGRP returns: Found  4 space group operations
 (whereof  4 operations were pure point group operations)
 out of a pool of 16 trial point group operations.


The constrained configuration has the point symmetry C_2v.


 Subroutine INISYM returns: Found  4 space group operations
 (whereof  4 operations are pure point group operations),
 and found     1 'primitive' translations


----------------------------------------------------------------------------------------

                                     Primitive cell                                     

  volume of cell :      93.0058

  direct lattice vectors                    reciprocal lattice vectors
     2.526300000  0.000000000  0.000000000     0.395835807  0.000000000  0.000000000
     0.000000000  2.526300000  0.000000000     0.000000000  0.395835807  0.000000000
     0.000000000  0.000000000 14.572700000     0.000000000  0.000000000  0.068621463

  length of vectors
     2.526300000  2.526300000 14.572700000     0.395835807  0.395835807  0.068621463

  position of ions in fractional coordinates (direct lattice)
     0.000000000  0.000000000  0.191200000
     0.500000000  0.500000000  0.068620000
     0.500000000  0.500000000  0.313790000
     0.500000000  0.000000000  0.129910000
     0.000000000  0.500000000  0.252500000
     0.868440000  0.500000000  0.023460000
     0.131560000  0.500000000  0.023460000

  ion indices of the primitive-cell ions
   primitive index   ion index
                 1           1
                 2           2
                 3           3
                 4           4
                 5           5
                 6           6
                 7           7

----------------------------------------------------------------------------------------



 KPOINTS: C fcc         # System label            

Automatic generation of k-mesh.
 Grid dimensions read from file:
 generate k-points for:    7    7    1

 Generating k-lattice:

  Cartesian coordinates                     Fractional coordinates (reciprocal lattice)
     0.056547972  0.000000000  0.000000000     0.142857143  0.000000000  0.000000000
     0.000000000  0.056547972  0.000000000     0.000000000  0.142857143  0.000000000
     0.000000000  0.000000000  0.068621463     0.000000000  0.000000000  1.000000000

  Length of vectors
     0.056547972  0.056547972  0.068621463

  Shift w.r.t. Gamma in fractional coordinates (k-lattice)
     0.000000000  0.000000000  0.000000000

 
 Subroutine IBZKPT returns following result:
 ===========================================
 
 Found     16 irreducible k-points:
 
 Following reciprocal coordinates:
            Coordinates               Weight
  0.000000  0.000000  0.000000      1.000000
  0.142857  0.000000  0.000000      2.000000
  0.000000  0.142857  0.000000      2.000000
  0.285714  0.000000  0.000000      2.000000
  0.000000  0.285714  0.000000      2.000000
  0.428571  0.000000  0.000000      2.000000
  0.000000  0.428571  0.000000      2.000000
  0.142857  0.142857  0.000000      4.000000
  0.285714  0.142857  0.000000      4.000000
 -0.142857  0.285714  0.000000      4.000000
  0.428571  0.142857  0.000000      4.000000
 -0.142857  0.428571  0.000000      4.000000
  0.285714  0.285714  0.000000      4.000000
  0.428571  0.285714  0.000000      4.000000
 -0.285714  0.428571  0.000000      4.000000
  0.428571  0.428571  0.000000      4.000000
 
 Following cartesian coordinates:
            Coordinates               Weight
  0.000000  0.000000  0.000000      1.000000
  0.056548  0.000000  0.000000      2.000000
  0.000000  0.056548  0.000000      2.000000
  0.113096  0.000000  0.000000      2.000000
  0.000000  0.113096  0.000000      2.000000
  0.169644  0.000000  0.000000      2.000000
  0.000000  0.169644  0.000000      2.000000
  0.056548  0.056548  0.000000      4.000000
  0.113096  0.056548  0.000000      4.000000
 -0.056548  0.113096  0.000000      4.000000
  0.169644  0.056548  0.000000      4.000000
 -0.056548  0.169644  0.000000      4.000000
  0.113096  0.113096  0.000000      4.000000
  0.169644  0.113096  0.000000      4.000000
 -0.113096  0.169644  0.000000      4.000000
  0.169644  0.169644  0.000000      4.000000
 


--------------------------------------------------------------------------------------------------------




 Dimension of arrays:
   k-points           NKPTS =     16   k-points in BZ     NKDIM =     16   number of bands    NBANDS=     16
   number of dos      NEDOS =    301   number of ions     NIONS =      7
   non local maximal  LDIM  =      4   non local SUM 2l+1 LMDIM =      8
   total plane-waves  NPLWV =  34992
   max r-space proj   IRMAX =   1277   max aug-charges    IRDMAX=  35714
   dimension x,y,z NGX =    18 NGY =   18 NGZ =  108
   dimension x,y,z NGXF=    36 NGYF=   36 NGZF=  216
   support grid    NGXF=    72 NGYF=   72 NGZF=  432
   ions per type =               5   2
   NGX,Y,Z   is equivalent  to a cutoff of  11.85, 11.85, 12.32 a.u.
   NGXF,Y,Z  is equivalent  to a cutoff of  23.69, 23.69, 24.64 a.u.

 SYSTEM =  carbon 100                              
 POSCAR =   C  H                                   

 Startparameter for this run:
   NWRITE =      2    write-flag & timer
   PREC   = normal    normal or accurate (medium, high low for compatibility)
   ISTART =      0    job   : 0-new  1-cont  2-samecut
   ICHARG =      2    charge: 1-file 2-atom 10-const
   ISPIN  =      1    spin polarized calculation?
   LNONCOLLINEAR =      F non collinear calculations
   LSORBIT =      F    spin-orbit coupling
   INIWAV =      1    electr: 0-lowe 1-rand  2-diag
   LASPH  =      F    aspherical Exc in radial PAW
 Electronic Relaxation 1
   ENCUT  =  800.0 eV  58.80 Ry    7.67 a.u.   5.83  5.83 33.61*2*pi/ulx,y,z
   ENINI  =  800.0     initial cutoff
   ENAUG  =  644.9 eV  augmentation charge cutoff
   NELM   =     60;   NELMIN=  2; NELMDL= -5     # of ELM steps 
   EDIFF  = 0.1E-03   stopping-criterion for ELM
   LREAL  =      T    real-space projection
   NLSPLINE    = F    spline interpolate recip. space projectors
   LCOMPAT=      F    compatible to vasp.4.4
   GGA_COMPAT  = T    GGA compatible to vasp.4.4-vasp.4.6
   LMAXPAW     = -100 max onsite density
   LMAXMIX     =    2 max onsite mixed and CHGCAR
   VOSKOWN=      0    Vosko Wilk Nusair interpolation
   ROPT   =   -0.00050  -0.00050
 Ionic relaxation
   EDIFFG = -.3E-01   stopping-criterion for IOM
   NSW    =     30    number of steps for IOM
   NBLOCK =      1;   KBLOCK =     30    inner block; outer block 
   IBRION =      1    ionic relax: 0-MD 1-quasi-New 2-CG
   NFREE  =      0    steps in history (QN), initial steepest desc. (CG)
   ISIF   =      2    stress and relaxation
   IWAVPR =     11    prediction:  0-non 1-charg 2-wave 3-comb
   ISYM   =      2    0-nonsym 1-usesym 2-fastsym
   LCORR  =      T    Harris-Foulkes like correction to forces

   POTIM  = 0.5000    time-step for ionic-motion
   TEIN   =    0.0    initial temperature
   TEBEG  =    0.0;   TEEND  =   0.0 temperature during run
   SMASS  =  -3.00    Nose mass-parameter (am)
   estimated Nose-frequenzy (Omega)   =  0.10E-29 period in steps = 0.13E+47 mass=  -0.146E-27a.u.
   SCALEE = 1.0000    scale energy and forces
   NPACO  =    256;   APACO  = 10.0  distance and # of slots for P.C.
   PSTRESS=    0.0 pullay stress

  Mass of Ions in am
   POMASS =  12.01  1.00
  Ionic Valenz
   ZVAL   =   4.00  1.00
  Atomic Wigner-Seitz radii
   RWIGS  =  -1.00 -1.00
  virtual crystal weights 
   VCA    =   1.00  1.00
   NELECT =      22.0000    total number of electrons
   NUPDOWN=      -1.0000    fix difference up-down

 DOS related values:
   EMIN   =  10.00;   EMAX   =-10.00  energy-range for DOS
   EFERMI =   0.00;   METHOD = LEGACY      
   ISMEAR =     1;   SIGMA  =   0.20  broadening in eV -4-tet -1-fermi 0-gaus

 Electronic relaxation 2 (details)
   IALGO  =     68    algorithm
   LDIAG  =      T    sub-space diagonalisation (order eigenvalues)
   LSUBROT=      F    optimize rotation matrix (better conditioning)
   TURBO    =      0    0=normal 1=particle mesh
   IRESTART =      0    0=no restart 2=restart with 2 vectors
   NREBOOT  =      0    no. of reboots
   NMIN     =      0    reboot dimension
   EREF     =   0.00    reference energy to select bands
   IMIX   =      4    mixing-type and parameters
     AMIX     =   0.40;   BMIX     =  1.00
     AMIX_MAG =   1.60;   BMIX_MAG =  1.00
     AMIN     =   0.10
     WC   =   100.;   INIMIX=   1;  MIXPRE=   1;  MAXMIX= -45

 Intra band minimization:
   WEIMIN = 0.0010     energy-eigenvalue tresh-hold
   EBREAK =  0.16E-05  absolut break condition
   DEPER  =   0.30     relativ break condition  

   TIME   =   0.40     timestep for ELM

  volume/ion in A,a.u.               =      13.29        89.66
  Fermi-wavevector in a.u.,A,eV,Ry     =   1.012463  1.913277 13.947074  1.025081
  Thomas-Fermi vector in A             =   2.145574

 Write flags
   LWAVE        =      T    write WAVECAR
   LDOWNSAMPLE  =      F    k-point downsampling of WAVECAR
   LCHARG       =      F    write CHGCAR
   LVTOT        =      F    write LOCPOT, total local potential
   LVHAR        =      F    write LOCPOT, Hartree potential only
   LELF         =      F    write electronic localiz. function (ELF)
   LORBIT       =      0    0 simple, 1 ext, 2 COOP (PROOUT), +10 PAW based schemes


 Dipole corrections
   LMONO  =      F    monopole corrections only (constant potential shift)
   LDIPOL =      T    correct potential (dipole corrections)
   IDIPOL =      3    1-x, 2-y, 3-z, 4-all directions 
   EPSILON=  1.0000000 bulk dielectric constant

 Exchange correlation treatment:
   GGA     =    --    GGA type
   LEXCH   =     8    internal setting for exchange type
   LIBXC   =     F    Libxc                    
   VOSKOWN =     0    Vosko Wilk Nusair interpolation
   LHFCALC =     F    Hartree Fock is set to
   LHFONE  =     F    Hartree Fock one center treatment
   AEXX    =    0.0000 exact exchange contribution

 Linear response parameters
   LEPSILON=     F    determine dielectric tensor
   LRPA    =     F    only Hartree local field effects (RPA)
   LNABLA  =     F    use nabla operator in PAW spheres
   LVEL    =     F    velocity operator in full k-point grid
   CSHIFT  =0.1000    complex shift for real part using Kramers Kronig
   OMEGAMAX=  -1.0    maximum frequency
   DEG_THRESHOLD= 0.2000000E-02 threshold for treating states as degnerate
   RTIME   =   -0.100 relaxation time in fs
  (WPLASMAI=    0.000 imaginary part of plasma frequency in eV, 0.658/RTIME)
   DFIELD  = 0.0000000 0.0000000 0.0000000 field for delta impulse in time

  Optional k-point grid parameters
   LKPOINTS_OPT  =     F    use optional k-point grid
   KPOINTS_OPT_MODE=     1    mode for optional k-point grid

 Orbital magnetization related:
   ORBITALMAG=     F  switch on orbital magnetization
   LCHIMAG   =     F  perturbation theory with respect to B field
   DQ        =  0.001000  dq finite difference perturbation B field
   LLRAUG    =     F  two centre corrections for induced B field
   LBONE     =     F  B-component reconstruction in AE one-centre
   LVGVCALC  =     T  calculate vGv susceptibility
   LVGVAPPL  =     F  apply vGv susceptibility instead of pGv for G=0

 Random number generation:
   RANDOM_GENERATOR = DEFAULT
   PCG_SEED         = not used


--------------------------------------------------------------------------------------------------------


 quasi-Newton-method for relaxation of ions
   using selective dynamics as specified on POSCAR
   WARNING: If single coordinates had been selected the selection of coordinates
            is made according to the corresponding   d i r e c t   coordinates!
            Don't support selection of single cartesian coordinates -- sorry ... !
 charge density and potential will be updated during run
 non-spin polarized calculation
 RMM-DIIS sequential band-by-band and
  variant of blocked Davidson during initial phase
 perform sub-space diagonalisation
    before iterative eigenvector-optimisation
 modified Broyden-mixing scheme, WC =      100.0
 initial mixing is a Kerker type mixing with AMIX =  0.4000 and BMIX =      1.0000
 Hartree-type preconditioning will be used
 using additional bands            5
 real space projection scheme for non local part
 use partial core corrections
 calculate Harris-corrections to forces   (improved forces if not selfconsistent)
 use gradient corrections 
 use of overlap-Matrix (Vanderbilt PP)
 Methfessel and Paxton  Order N= 1 SIGMA  =   0.20


--------------------------------------------------------------------------------------------------------


  energy-cutoff  :      800.00
  volume of cell :       93.01
      direct lattice vectors                 reciprocal lattice vectors
     2.526300000  0.000000000  0.000000000     0.395835807  0.000000000  0.000000000
     0.000000000  2.526300000  0.000000000     0.000000000  0.395835807  0.000000000
     0.000000000  0.000000000 14.572700000     0.000000000  0.000000000  0.068621463

  length of vectors
     2.526300000  2.526300000 14.572700000     0.395835807  0.395835807  0.068621463



 k-points in units of 2pi/SCALE and weight: C fcc         # System label            
   0.00000000  0.00000000  0.00000000       0.020
   0.05654797  0.00000000  0.00000000       0.041
   0.00000000  0.05654797  0.00000000       0.041
   0.11309594  0.00000000  0.00000000       0.041
   0.00000000  0.11309594  0.00000000       0.041
   0.16964392  0.00000000  0.00000000       0.041
   0.00000000  0.16964392  0.00000000       0.041
   0.05654797  0.05654797  0.00000000       0.082
   0.11309594  0.05654797  0.00000000       0.082
  -0.05654797  0.11309594  0.00000000       0.082
   0.16964392  0.05654797  0.00000000       0.082
  -0.05654797  0.16964392  0.00000000       0.082
   0.11309594  0.11309594  0.00000000       0.082
   0.16964392  0.11309594  0.00000000       0.082
  -0.11309594  0.16964392  0.00000000       0.082
   0.16964392  0.16964392  0.00000000       0.082

 k-points in reciprocal lattice and weights: C fcc         # System label            
   0.00000000  0.00000000  0.00000000       0.020
   0.14285714  0.00000000  0.00000000       0.041
   0.00000000  0.14285714  0.00000000       0.041
   0.28571429  0.00000000  0.00000000       0.041
   0.00000000  0.28571429  0.00000000       0.041
   0.42857143  0.00000000  0.00000000       0.041
   0.00000000  0.42857143  0.00000000       0.041
   0.14285714  0.14285714  0.00000000       0.082
   0.28571429  0.14285714  0.00000000       0.082
  -0.14285714  0.28571429  0.00000000       0.082
   0.42857143  0.14285714  0.00000000       0.082
  -0.14285714  0.42857143  0.00000000       0.082
   0.28571429  0.28571429  0.00000000       0.082
   0.42857143  0.28571429  0.00000000       0.082
  -0.28571429  0.42857143  0.00000000       0.082
   0.42857143  0.42857143  0.00000000       0.082

 position of ions in fractional coordinates (direct lattice) 
   0.00000000  0.00000000  0.19120000
   0.50000000  0.50000000  0.06862000
   0.50000000  0.50000000  0.31379000
   0.50000000  0.00000000  0.12991000
   0.00000000  0.50000000  0.25250000
   0.86844000  0.50000000  0.02346000
   0.13156000  0.50000000  0.02346000

 position of ions in cartesian coordinates  (Angst):
   0.00000000  0.00000000  2.78630024
   1.26315000  1.26315000  0.99997867
   1.26315000  1.26315000  4.57276753
   1.26315000  0.00000000  1.89313946
   0.00000000  1.26315000  3.67960675
   2.19393997  1.26315000  0.34187554
   0.33236003  1.26315000  0.34187554



--------------------------------------------------------------------------------------------------------


 k-point   1 :   0.0000 0.0000 0.0000  plane waves:    4751
 k-point   2 :   0.1429 0.0000 0.0000  plane waves:    4769
 k-point   3 :   0.0000 0.1429 0.0000  plane waves:    4769
 k-point   4 :   0.2857 0.0000 0.0000  plane waves:    4790
 k-point   5 :   0.0000 0.2857 0.0000  plane waves:    4790
 k-point   6 :   0.4286 0.0000 0.0000  plane waves:    4792
 k-point   7 :   0.0000 0.4286 0.0000  plane waves:    4792
 k-point   8 :   0.1429 0.1429 0.0000  plane waves:    4752
 k-point   9 :   0.2857 0.1429 0.0000  plane waves:    4770
 k-point  10 :  -0.1429 0.2857 0.0000  plane waves:    4770
 k-point  11 :   0.4286 0.1429 0.0000  plane waves:    4781
 k-point  12 :  -0.1429 0.4286 0.0000  plane waves:    4781
 k-point  13 :   0.2857 0.2857 0.0000  plane waves:    4790
 k-point  14 :   0.4286 0.2857 0.0000  plane waves:    4773
 k-point  15 :  -0.2857 0.4286 0.0000  plane waves:    4773
 k-point  16 :   0.4286 0.4286 0.0000  plane waves:    4826

 maximum and minimum number of plane-waves per node :      4826     4751

 maximum number of plane-waves:      4826
 maximum index in each direction: 
   IXMAX=    6   IYMAX=    5   IZMAX=   33
   IXMIN=   -6   IYMIN=   -6   IZMIN=  -33


 serial   3D FFT for wavefunctions
 parallel 3D FFT for charge:
    minimum data exchange during FFTs selected (reduces bandwidth)


 total amount of memory used by VASP MPI-rank0    51383. kBytes
=======================================================================

   base      :      30000. kBytes
   nonlr-proj:        633. kBytes
   fftplans  :      10383. kBytes
   grid      :       5349. kBytes
   one-center:         21. kBytes
   wavefun   :       4997. kBytes

     INWAV:  cpu time      0.0000: real time      0.0000
 Broyden mixing: mesh for mixing (old mesh)
   NGX = 11   NGY = 11   NGZ = 67
  (NGX  = 36   NGY  = 36   NGZ  =216)
  gives a total of   8107 points

 initial charge density was supplied:
 charge density of overlapping atoms calculated
 number of electron      22.0000000 magnetization 
 keeping initial charge density in first step


--------------------------------------------------------------------------------------------------------


 Maximum index for non-local projection operator         1198
 Maximum index for augmentation-charges         8540 (set IRDMAX)


--------------------------------------------------------------------------------------------------------


 First call to EWALD:  gamma=   0.391
 Maximum number of real-space cells 5x 5x 1
 Maximum number of reciprocal cells 2x 2x 8

    FEWALD:  cpu time      0.0006: real time      0.0006


--------------------------------------- Ionic step        1  -------------------------------------------




--------------------------------------- Iteration      1(   1)  ---------------------------------------


    POTLOK:  cpu time      0.0237: real time      0.0237
    SETDIJ:  cpu time      0.0239: real time      0.0239
     EDDAV:  cpu time      0.3090: real time      0.3090
       DOS:  cpu time      0.0002: real time      0.0002
    --------------------------------------------
      LOOP:  cpu time      0.3568: real time      0.3568

 eigenvalue-minimisations  :   512
 total energy-change (2. order) : 0.1597409E+03  (-0.1275699E+04)
 number of electron      22.0000000 magnetization 
 augmentation part       22.0000000 magnetization 

 DIPCOR: dipole corrections for dipol
 direction  3 min pos   147,
 dipolmoment           0.000000      0.000000      0.000041 electrons x Angstroem
 Tr[quadrupol]       -37.817229

 energy correction for charged system         0.000000 eV
 dipol+quadrupol energy correction           -0.000000 eV
 added-field ion interaction         -0.000001 eV  (added to PSCEN)


 Free energy of the ion-electron system (eV)
  ---------------------------------------------------
  alpha Z        PSCENC =        25.44171317
  Ewald energy   TEWEN  =      2846.08513144
  -Hartree energ DENC   =     -3498.69066863
  -exchange      EXHF   =         0.00000000
  -V(xc)+E(xc)   XCENC  =        72.27990186
  PAW double counting   =       546.87828677     -549.74307138
  entropy T*S    EENTRO =         0.00570816
  eigenvalues    EBANDS =       -43.26453969
  atomic energy  EATOM  =       760.74847491
  Solvation  Ediel_sol  =         0.00000000
  ---------------------------------------------------
  free energy    TOTEN  =       159.74093661 eV

  energy without entropy =      159.73522845  energy(sigma->0) =      159.73903389


--------------------------------------------------------------------------------------------------------




--------------------------------------- Iteration      1(   2)  ---------------------------------------


     EDDAV:  cpu time      0.3898: real time      0.3899
       DOS:  cpu time      0.0002: real time      0.0002
    --------------------------------------------
      LOOP:  cpu time      0.3901: real time      0.3901

 eigenvalue-minimisations  :   696
 total energy-change (2. order) :-0.1944618E+03  (-0.1887794E+03)
 number of electron      22.0000000 magnetization 
 augmentation part       22.0000000 magnetization 

 DIPCOR: dipole corrections for dipol
 direction  3 min pos   147,
 dipolmoment           0.000000      0.000000      0.000041 electrons x Angstroem
 Tr[quadrupol]       -37.817229

 energy correction for charged system         0.000000 eV
 dipol+quadrupol energy correction           -0.000000 eV
 added-field ion interaction         -0.000001 eV  (added to PSCEN)


 Free energy of the ion-electron system (eV)
  ---------------------------------------------------
  alpha Z        PSCENC =        25.44171317
  Ewald energy   TEWEN  =      2846.08513144
  -Hartree energ DENC   =     -3498.69066863
  -exchange      EXHF   =         0.00000000
  -V(xc)+E(xc)   XCENC  =        72.27990186
  PAW double counting   =       546.87828677     -549.74307138
  entropy T*S    EENTRO =         0.00048991
  eigenvalues    EBANDS =      -237.72116887
  atomic energy  EATOM  =       760.74847491
  Solvation  Ediel_sol  =         0.00000000
  ---------------------------------------------------
  free energy    TOTEN  =       -34.72091082 eV

  energy without entropy =      -34.72140073  energy(sigma->0) =      -34.72107413


--------------------------------------------------------------------------------------------------------




--------------------------------------- Iteration      1(   3)  ---------------------------------------


     EDDAV:  cpu time      0.3952: real time      0.3953
       DOS:  cpu time      0.0002: real time      0.0002
    --------------------------------------------
      LOOP:  cpu time      0.3954: real time      0.3956

 eigenvalue-minimisations  :   696
 total energy-change (2. order) :-0.1285736E+02  (-0.1274652E+02)
 number of electron      22.0000000 magnetization 
 augmentation part       22.0000000 magnetization 

 DIPCOR: dipole corrections for dipol
 direction  3 min pos   147,
 dipolmoment           0.000000      0.000000      0.000041 electrons x Angstroem
 Tr[quadrupol]       -37.817229

 energy correction for charged system         0.000000 eV
 dipol+quadrupol energy correction           -0.000000 eV
 added-field ion interaction         -0.000001 eV  (added to PSCEN)


 Free energy of the ion-electron system (eV)
  ---------------------------------------------------
  alpha Z        PSCENC =        25.44171317
  Ewald energy   TEWEN  =      2846.08513144
  -Hartree energ DENC   =     -3498.69066863
  -exchange      EXHF   =         0.00000000
  -V(xc)+E(xc)   XCENC  =        72.27990186
  PAW double counting   =       546.87828677     -549.74307138
  entropy T*S    EENTRO =         0.00317963
  eigenvalues    EBANDS =      -250.58122125
  atomic energy  EATOM  =       760.74847491
  Solvation  Ediel_sol  =         0.00000000
  ---------------------------------------------------
  free energy    TOTEN  =       -47.57827348 eV

  energy without entropy =      -47.58145312  energy(sigma->0) =      -47.57933336


--------------------------------------------------------------------------------------------------------




--------------------------------------- Iteration      1(   4)  ---------------------------------------


     EDDAV:  cpu time      0.4069: real time      0.4070
       DOS:  cpu time      0.0002: real time      0.0002
    --------------------------------------------
      LOOP:  cpu time      0.4071: real time      0.4072

 eigenvalue-minimisations  :   736
 total energy-change (2. order) :-0.2103371E+00  (-0.2098901E+00)
 number of electron      22.0000000 magnetization 
 augmentation part       22.0000000 magnetization 

 DIPCOR: dipole corrections for dipol
 direction  3 min pos   147,
 dipolmoment           0.000000      0.000000      0.000041 electrons x Angstroem
 Tr[quadrupol]       -37.817229

 energy correction for charged system         0.000000 eV
 dipol+quadrupol energy correction           -0.000000 eV
 added-field ion interaction         -0.000001 eV  (added to PSCEN)


 Free energy of the ion-electron system (eV)
  ---------------------------------------------------
  alpha Z        PSCENC =        25.44171317
  Ewald energy   TEWEN  =      2846.08513144
  -Hartree energ DENC   =     -3498.69066863
  -exchange      EXHF   =         0.00000000
  -V(xc)+E(xc)   XCENC  =        72.27990186
  PAW double counting   =       546.87828677     -549.74307138
  entropy T*S    EENTRO =         0.00435117
  eigenvalues    EBANDS =      -250.79272984
  atomic energy  EATOM  =       760.74847491
  Solvation  Ediel_sol  =         0.00000000
  ---------------------------------------------------
  free energy    TOTEN  =       -47.78861054 eV

  energy without entropy =      -47.79296171  energy(sigma->0) =      -47.79006093


--------------------------------------------------------------------------------------------------------




--------------------------------------- Iteration      1(   5)  ---------------------------------------


     EDDAV:  cpu time      0.4253: real time      0.4255
       DOS:  cpu time      0.0002: real time      0.0002
    CHARGE:  cpu time      0.0499: real time      0.0499
    MIXING:  cpu time      0.0019: real time      0.0019
    --------------------------------------------
      LOOP:  cpu time      0.4774: real time      0.4775

 eigenvalue-minimisations  :   784
 total energy-change (2. order) :-0.7827572E-02  (-0.7825608E-02)
 number of electron      22.0000000 magnetization 
 augmentation part        0.5047056 magnetization 

 DIPCOR: dipole corrections for dipol
 direction  3 min pos   147,
 dipolmoment           0.000000      0.000000      0.000041 electrons x Angstroem
 Tr[quadrupol]       -37.817229

 energy correction for charged system         0.000000 eV
 dipol+quadrupol energy correction           -0.000000 eV
 added-field ion interaction         -0.000001 eV  (added to PSCEN)


 Broyden mixing:
  rms(total) = 0.97478E+00    rms(broyden)= 0.97477E+00
  rms(prec ) = 0.10997E+01
  weight for this iteration     100.00

 Free energy of the ion-electron system (eV)
  ---------------------------------------------------
  alpha Z        PSCENC =        25.44171317
  Ewald energy   TEWEN  =      2846.08513144
  -Hartree energ DENC   =     -3498.69066863
  -exchange      EXHF   =         0.00000000
  -V(xc)+E(xc)   XCENC  =        72.27990186
  PAW double counting   =       546.87828677     -549.74307138
  entropy T*S    EENTRO =         0.00435247
  eigenvalues    EBANDS =      -250.80055872
  atomic energy  EATOM  =       760.74847491
  Solvation  Ediel_sol  =         0.00000000
  ---------------------------------------------------
  free energy    TOTEN  =       -47.79643811 eV

  energy without entropy =      -47.80079058  energy(sigma->0) =      -47.79788893


--------------------------------------------------------------------------------------------------------




--------------------------------------- Iteration      1(   6)  ---------------------------------------


    POTLOK:  cpu time      0.0238: real time      0.0238
    SETDIJ:  cpu time      0.0227: real time      0.0227
    EDDIAG:  cpu time      0.0554: real time      0.0554
  RMM-DIIS:  cpu time      0.2332: real time      0.2333
    ORTHCH:  cpu time      0.0058: real time      0.0058
       DOS:  cpu time      0.0003: real time      0.0003
    CHARGE:  cpu time      0.0463: real time      0.0463
    MIXING:  cpu time      0.0011: real time      0.0011
    --------------------------------------------
      LOOP:  cpu time      0.3887: real time      0.3888

 eigenvalue-minimisations  :   516
 total energy-change (2. order) : 0.1751954E+01  (-0.1604738E+00)
 number of electron      22.0000000 magnetization 
 augmentation part        0.4775195 magnetization 

 DIPCOR: dipole corrections for dipol
 direction  3 min pos   144,
 dipolmoment           0.000000      0.000000      0.004288 electrons x Angstroem
 Tr[quadrupol]       -37.997548

 energy correction for charged system         0.000000 eV
 dipol+quadrupol energy correction           -0.000018 eV
 added-field ion interaction         -0.037223 eV  (added to PSCEN)


 Broyden mixing:
  rms(total) = 0.54502E+00    rms(broyden)= 0.54502E+00
  rms(prec ) = 0.64840E+00
  weight for this iteration     100.00

 eigenvalues of (default mixing * dielectric matrix)
  average eigenvalue GAMMA=   1.6408
  1.6408

 Free energy of the ion-electron system (eV)
  ---------------------------------------------------
  alpha Z        PSCENC =        25.40447280
  Ewald energy   TEWEN  =      2846.08513144
  -Hartree energ DENC   =     -3520.11923654
  -exchange      EXHF   =         0.00000000
  -V(xc)+E(xc)   XCENC  =        73.36170124
  PAW double counting   =       919.42926287     -922.59695900
  entropy T*S    EENTRO =        -0.00006800
  eigenvalues    EBANDS =      -228.35726348
  atomic energy  EATOM  =       760.74847491
  Solvation  Ediel_sol  =         0.00000000
  ---------------------------------------------------
  free energy    TOTEN  =       -46.04448375 eV

  energy without entropy =      -46.04441575  energy(sigma->0) =      -46.04446108


--------------------------------------------------------------------------------------------------------




--------------------------------------- Iteration      1(   7)  ---------------------------------------


    POTLOK:  cpu time      0.0241: real time      0.0241
    SETDIJ:  cpu time      0.0225: real time      0.0225
    EDDIAG:  cpu time      0.0535: real time      0.0535
  RMM-DIIS:  cpu time      0.2255: real time      0.2255
    ORTHCH:  cpu time      0.0058: real time      0.0058
       DOS:  cpu time      0.0003: real time      0.0003
    CHARGE:  cpu time      0.0495: real time      0.0494
    MIXING:  cpu time      0.0011: real time      0.0011
    --------------------------------------------
      LOOP:  cpu time      0.3821: real time      0.3822

 eigenvalue-minimisations  :   513
 total energy-change (2. order) : 0.3781591E+00  (-0.1036788E+00)
 number of electron      22.0000000 magnetization 
 augmentation part        0.4837843 magnetization 

 DIPCOR: dipole corrections for dipol
 direction  3 min pos   143,
 dipolmoment           0.000000      0.000000      0.109253 electrons x Angstroem
 Tr[quadrupol]       -38.060925

 energy correction for charged system         0.000000 eV
 dipol+quadrupol energy correction           -0.011612 eV
 added-field ion interaction         -1.263950 eV  (added to PSCEN)


 Broyden mixing:
  rms(total) = 0.33792E+00    rms(broyden)= 0.33792E+00
  rms(prec ) = 0.42743E+00
  weight for this iteration     100.00

 eigenvalues of (default mixing * dielectric matrix)
  average eigenvalue GAMMA=   1.4155
  2.2553  0.5756

 Free energy of the ion-electron system (eV)
  ---------------------------------------------------
  alpha Z        PSCENC =        24.16615187
  Ewald energy   TEWEN  =      2846.08513144
  -Hartree energ DENC   =     -3533.18814293
  -exchange      EXHF   =         0.00000000
  -V(xc)+E(xc)   XCENC  =        74.21323742
  PAW double counting   =      1293.60804110    -1296.94732956
  entropy T*S    EENTRO =         0.00373861
  eigenvalues    EBANDS =      -214.35562746
  atomic energy  EATOM  =       760.74847491
  Solvation  Ediel_sol  =         0.00000000
  ---------------------------------------------------
  free energy    TOTEN  =       -45.66632460 eV

  energy without entropy =      -45.67006321  energy(sigma->0) =      -45.66757080


--------------------------------------------------------------------------------------------------------




--------------------------------------- Iteration      1(   8)  ---------------------------------------


    POTLOK:  cpu time      0.0237: real time      0.0237
    SETDIJ:  cpu time      0.0230: real time      0.0230
    EDDIAG:  cpu time      0.0532: real time      0.0532
  RMM-DIIS:  cpu time      0.2277: real time      0.2278
    ORTHCH:  cpu time      0.0058: real time      0.0058
       DOS:  cpu time      0.0002: real time      0.0002
    CHARGE:  cpu time      0.0495: real time      0.0495
    MIXING:  cpu time      0.0014: real time      0.0014
    --------------------------------------------
      LOOP:  cpu time      0.3844: real time      0.3845

 eigenvalue-minimisations  :   515
 total energy-change (2. order) : 0.2986301E+00  (-0.4750090E-01)
 number of electron      22.0000000 magnetization 
 augmentation part        0.4752288 magnetization 

 DIPCOR: dipole corrections for dipol
 direction  3 min pos   142,
 dipolmoment           0.000000      0.000000      0.123674 electrons x Angstroem
 Tr[quadrupol]       -38.216866

 energy correction for charged system         0.000000 eV
 dipol+quadrupol energy correction           -0.014879 eV
 added-field ion interaction         -1.787923 eV  (added to PSCEN)


 Broyden mixing:
  rms(total) = 0.14771E+00    rms(broyden)= 0.14770E+00
  rms(prec ) = 0.22113E+00
  weight for this iteration     100.00

 eigenvalues of (default mixing * dielectric matrix)
  average eigenvalue GAMMA=   1.5816
  2.4901  1.5765  0.6782

 Free energy of the ion-electron system (eV)
  ---------------------------------------------------
  alpha Z        PSCENC =        23.63891213
  Ewald energy   TEWEN  =      2846.08513144
  -Hartree energ DENC   =     -3547.46151966
  -exchange      EXHF   =         0.00000000
  -V(xc)+E(xc)   XCENC  =        74.86398133
  PAW double counting   =      1639.11527475    -1642.55724107
  entropy T*S    EENTRO =         0.00214973
  eigenvalues    EBANDS =      -199.80285803
  atomic energy  EATOM  =       760.74847491
  Solvation  Ediel_sol  =         0.00000000
  ---------------------------------------------------
  free energy    TOTEN  =       -45.36769447 eV

  energy without entropy =      -45.36984420  energy(sigma->0) =      -45.36841104


--------------------------------------------------------------------------------------------------------




--------------------------------------- Iteration      1(   9)  ---------------------------------------


    POTLOK:  cpu time      0.0243: real time      0.0243
    SETDIJ:  cpu time      0.0231: real time      0.0231
    EDDIAG:  cpu time      0.0545: real time      0.0545
  RMM-DIIS:  cpu time      0.2424: real time      0.2425
    ORTHCH:  cpu time      0.0058: real time      0.0058
       DOS:  cpu time      0.0003: real time      0.0003
    CHARGE:  cpu time      0.0511: real time      0.0511
    MIXING:  cpu time      0.0017: real time      0.0017
    --------------------------------------------
      LOOP:  cpu time      0.4031: real time      0.4032

 eigenvalue-minimisations  :   528
 total energy-change (2. order) :-0.2552647E-02  (-0.3345736E-01)
 number of electron      22.0000000 magnetization 
 augmentation part        0.4582297 magnetization 

 DIPCOR: dipole corrections for dipol
 direction  3 min pos   140,
 dipolmoment           0.000000      0.000000      0.107698 electrons x Angstroem
 Tr[quadrupol]       -38.364115

 energy correction for charged system         0.000000 eV
 dipol+quadrupol energy correction           -0.011283 eV
 added-field ion interaction         -2.178979 eV  (added to PSCEN)


 Broyden mixing:
  rms(total) = 0.16020E+00    rms(broyden)= 0.16020E+00
  rms(prec ) = 0.26543E+00
  weight for this iteration     100.00

 eigenvalues of (default mixing * dielectric matrix)
  average eigenvalue GAMMA=   1.5438
  2.5482  2.1843  0.7214  0.7214

 Free energy of the ion-electron system (eV)
  ---------------------------------------------------
  alpha Z        PSCENC =        23.25145196
  Ewald energy   TEWEN  =      2846.08513144
  -Hartree energ DENC   =     -3553.50614680
  -exchange      EXHF   =         0.00000000
  -V(xc)+E(xc)   XCENC  =        74.94814661
  PAW double counting   =      1745.51281594    -1748.90714553
  entropy T*S    EENTRO =        -0.00054239
  eigenvalues    EBANDS =      -193.50243325
  atomic energy  EATOM  =       760.74847491
  Solvation  Ediel_sol  =         0.00000000
  ---------------------------------------------------
  free energy    TOTEN  =       -45.37024711 eV

  energy without entropy =      -45.36970472  energy(sigma->0) =      -45.37006631


--------------------------------------------------------------------------------------------------------




--------------------------------------- Iteration      1(  10)  ---------------------------------------


    POTLOK:  cpu time      0.0237: real time      0.0237
    SETDIJ:  cpu time      0.0236: real time      0.0236
    EDDIAG:  cpu time      0.0543: real time      0.0543
  RMM-DIIS:  cpu time      0.2317: real time      0.2317
    ORTHCH:  cpu time      0.0059: real time      0.0059
       DOS:  cpu time      0.0003: real time      0.0003
    CHARGE:  cpu time      0.0506: real time      0.0506
    MIXING:  cpu time      0.0013: real time      0.0013
    --------------------------------------------
      LOOP:  cpu time      0.3914: real time      0.3914

 eigenvalue-minimisations  :   520
 total energy-change (2. order) : 0.7289884E-01  (-0.6914951E-02)
 number of electron      22.0000000 magnetization 
 augmentation part        0.4705496 magnetization 

 DIPCOR: dipole corrections for dipol
 direction  3 min pos   137,
 dipolmoment           0.000000      0.000000      0.148794 electrons x Angstroem
 Tr[quadrupol]       -38.326662

 energy correction for charged system         0.000000 eV
 dipol+quadrupol energy correction           -0.021537 eV
 added-field ion interaction         -4.299498 eV  (added to PSCEN)


 Broyden mixing:
  rms(total) = 0.56275E-01    rms(broyden)= 0.56269E-01
  rms(prec ) = 0.98710E-01
  weight for this iteration     100.00

 eigenvalues of (default mixing * dielectric matrix)
  average eigenvalue GAMMA=   1.4921
  2.4904  2.4904  1.2197  0.6301  0.6301

 Free energy of the ion-electron system (eV)
  ---------------------------------------------------
  alpha Z        PSCENC =        21.12067821
  Ewald energy   TEWEN  =      2846.08513144
  -Hartree energ DENC   =     -3553.63174033
  -exchange      EXHF   =         0.00000000
  -V(xc)+E(xc)   XCENC  =        74.92500086
  PAW double counting   =      1770.84098130    -1774.19622264
  entropy T*S    EENTRO =        -0.00342725
  eigenvalues    EBANDS =      -191.18622478
  atomic energy  EATOM  =       760.74847491
  Solvation  Ediel_sol  =         0.00000000
  ---------------------------------------------------
  free energy    TOTEN  =       -45.29734827 eV

  energy without entropy =      -45.29392102  energy(sigma->0) =      -45.29620586


--------------------------------------------------------------------------------------------------------




--------------------------------------- Iteration      1(  11)  ---------------------------------------


    POTLOK:  cpu time      0.0247: real time      0.0247
    SETDIJ:  cpu time      0.0243: real time      0.0243
    EDDIAG:  cpu time      0.0551: real time      0.0551
  RMM-DIIS:  cpu time      0.2528: real time      0.2529
    ORTHCH:  cpu time      0.0062: real time      0.0062
       DOS:  cpu time      0.0003: real time      0.0003
    CHARGE:  cpu time      0.0444: real time      0.0444
    MIXING:  cpu time      0.0061: real time      0.0061
    --------------------------------------------
      LOOP:  cpu time      0.4138: real time      0.4138

 eigenvalue-minimisations  :   543
 total energy-change (2. order) : 0.7680707E-02  (-0.9793240E-03)
 number of electron      22.0000000 magnetization 
 augmentation part        0.4694057 magnetization 

 DIPCOR: dipole corrections for dipol
 direction  3 min pos   136,
 dipolmoment           0.000000      0.000000      0.157843 electrons x Angstroem
 Tr[quadrupol]       -38.368429

 energy correction for charged system         0.000000 eV
 dipol+quadrupol energy correction           -0.024237 eV
 added-field ion interaction         -5.016789 eV  (added to PSCEN)


 Broyden mixing:
  rms(total) = 0.41280E-01    rms(broyden)= 0.41280E-01
  rms(prec ) = 0.73989E-01
  weight for this iteration     100.00

 eigenvalues of (default mixing * dielectric matrix)
  average eigenvalue GAMMA=   1.5435
  2.5593  2.5593  1.9328  0.6637  0.6637  0.8822

 Free energy of the ion-electron system (eV)
  ---------------------------------------------------
  alpha Z        PSCENC =        20.40068841
  Ewald energy   TEWEN  =      2846.08513144
  -Hartree energ DENC   =     -3555.02559684
  -exchange      EXHF   =         0.00000000
  -V(xc)+E(xc)   XCENC  =        74.92117803
  PAW double counting   =      1770.66083439    -1774.00737009
  entropy T*S    EENTRO =        -0.00419593
  eigenvalues    EBANDS =      -189.06881190
  atomic energy  EATOM  =       760.74847491
  Solvation  Ediel_sol  =         0.00000000
  ---------------------------------------------------
  free energy    TOTEN  =       -45.28966757 eV

  energy without entropy =      -45.28547164  energy(sigma->0) =      -45.28826892


--------------------------------------------------------------------------------------------------------




--------------------------------------- Iteration      1(  12)  ---------------------------------------


    POTLOK:  cpu time      0.0255: real time      0.0255
    SETDIJ:  cpu time      0.0253: real time      0.0253
    EDDIAG:  cpu time      0.0602: real time      0.0602
  RMM-DIIS:  cpu time      0.2530: real time      0.2530
    ORTHCH:  cpu time      0.0060: real time      0.0060
       DOS:  cpu time      0.0003: real time      0.0003
    CHARGE:  cpu time      0.0436: real time      0.0436
    MIXING:  cpu time      0.0057: real time      0.0057
    --------------------------------------------
      LOOP:  cpu time      0.4196: real time      0.4196

 eigenvalue-minimisations  :   527
 total energy-change (2. order) : 0.7665004E-02  (-0.8147139E-03)
 number of electron      22.0000000 magnetization 
 augmentation part        0.4657785 magnetization 

 DIPCOR: dipole corrections for dipol
 direction  3 min pos   135,
 dipolmoment           0.000000      0.000000      0.165814 electrons x Angstroem
 Tr[quadrupol]       -38.432658

 energy correction for charged system         0.000000 eV
 dipol+quadrupol energy correction           -0.026747 eV
 added-field ion interaction         -5.748980 eV  (added to PSCEN)


 Broyden mixing:
  rms(total) = 0.98791E-02    rms(broyden)= 0.98769E-02
  rms(prec ) = 0.15518E-01
  weight for this iteration     100.00

 eigenvalues of (default mixing * dielectric matrix)
  average eigenvalue GAMMA=   1.4166
  2.6444  2.6444  1.8234  0.6637  0.6637  0.7383  0.7383

 Free energy of the ion-electron system (eV)
  ---------------------------------------------------
  alpha Z        PSCENC =        19.66598750
  Ewald energy   TEWEN  =      2846.08513144
  -Hartree energ DENC   =     -3557.08328459
  -exchange      EXHF   =         0.00000000
  -V(xc)+E(xc)   XCENC  =        74.93634306
  PAW double counting   =      1768.53825692    -1771.88823393
  entropy T*S    EENTRO =        -0.00095567
  eigenvalues    EBANDS =      -186.28372221
  atomic energy  EATOM  =       760.74847491
  Solvation  Ediel_sol  =         0.00000000
  ---------------------------------------------------
  free energy    TOTEN  =       -45.28200256 eV

  energy without entropy =      -45.28104689  energy(sigma->0) =      -45.28168401


--------------------------------------------------------------------------------------------------------




--------------------------------------- Iteration      1(  13)  ---------------------------------------


    POTLOK:  cpu time      0.0249: real time      0.0249
    SETDIJ:  cpu time      0.0238: real time      0.0239
    EDDIAG:  cpu time      0.0569: real time      0.0569
  RMM-DIIS:  cpu time      0.2439: real time      0.2439
    ORTHCH:  cpu time      0.0059: real time      0.0059
       DOS:  cpu time      0.0003: real time      0.0003
    CHARGE:  cpu time      0.0486: real time      0.0486
    MIXING:  cpu time      0.0032: real time      0.0032
    --------------------------------------------
      LOOP:  cpu time      0.4075: real time      0.4075

 eigenvalue-minimisations  :   512
 total energy-change (2. order) :-0.2163909E-03  (-0.1960006E-03)
 number of electron      22.0000000 magnetization 
 augmentation part        0.4675269 magnetization 

 DIPCOR: dipole corrections for dipol
 direction  3 min pos   135,
 dipolmoment           0.000000      0.000000      0.177232 electrons x Angstroem
 Tr[quadrupol]       -38.468107

 energy correction for charged system         0.000000 eV
 dipol+quadrupol energy correction           -0.030557 eV
 added-field ion interaction         -6.144853 eV  (added to PSCEN)


 Broyden mixing:
  rms(total) = 0.17051E-01    rms(broyden)= 0.17051E-01
  rms(prec ) = 0.32039E-01
  weight for this iteration     100.00

 eigenvalues of (default mixing * dielectric matrix)
  average eigenvalue GAMMA=   1.5088
  2.7278  2.7278  1.8650  1.8650  0.6628  0.6628  0.7797  0.7797

 Free energy of the ion-electron system (eV)
  ---------------------------------------------------
  alpha Z        PSCENC =        19.26630425
  Ewald energy   TEWEN  =      2846.08513144
  -Hartree energ DENC   =     -3557.65403155
  -exchange      EXHF   =         0.00000000
  -V(xc)+E(xc)   XCENC  =        74.93389210
  PAW double counting   =      1768.23907876    -1771.58456361
  entropy T*S    EENTRO =        -0.00346210
  eigenvalues    EBANDS =      -185.31304315
  atomic energy  EATOM  =       760.74847491
  Solvation  Ediel_sol  =         0.00000000
  ---------------------------------------------------
  free energy    TOTEN  =       -45.28221895 eV

  energy without entropy =      -45.27875685  energy(sigma->0) =      -45.28106492


--------------------------------------------------------------------------------------------------------




--------------------------------------- Iteration      1(  14)  ---------------------------------------


    POTLOK:  cpu time      0.0242: real time      0.0242
    SETDIJ:  cpu time      0.0278: real time      0.0278
    EDDIAG:  cpu time      0.0571: real time      0.0571
  RMM-DIIS:  cpu time      0.2280: real time      0.2281
    ORTHCH:  cpu time      0.0059: real time      0.0059
       DOS:  cpu time      0.0003: real time      0.0003
    CHARGE:  cpu time      0.0493: real time      0.0493
    MIXING:  cpu time      0.0020: real time      0.0020
    --------------------------------------------
      LOOP:  cpu time      0.3946: real time      0.3947

 eigenvalue-minimisations  :   492
 total energy-change (2. order) : 0.5817074E-03  (-0.1248506E-03)
 number of electron      22.0000000 magnetization 
 augmentation part        0.4671198 magnetization 

 DIPCOR: dipole corrections for dipol
 direction  3 min pos   135,
 dipolmoment           0.000000      0.000000      0.188857 electrons x Angstroem
 Tr[quadrupol]       -38.538100

 energy correction for charged system         0.000000 eV
 dipol+quadrupol energy correction           -0.034697 eV
 added-field ion interaction         -6.547911 eV  (added to PSCEN)


 Broyden mixing:
  rms(total) = 0.13096E-01    rms(broyden)= 0.13096E-01
  rms(prec ) = 0.23745E-01
  weight for this iteration     100.00

 eigenvalues of (default mixing * dielectric matrix)
  average eigenvalue GAMMA=   1.6631
  4.3552  2.6223  2.2831  1.9438  0.9300  0.6654  0.6654  0.7515  0.7515

 Free energy of the ion-electron system (eV)
  ---------------------------------------------------
  alpha Z        PSCENC =        18.85910605
  Ewald energy   TEWEN  =      2846.08513144
  -Hartree energ DENC   =     -3558.97260213
  -exchange      EXHF   =         0.00000000
  -V(xc)+E(xc)   XCENC  =        74.94280828
  PAW double counting   =      1768.78901558    -1772.13568297
  entropy T*S    EENTRO =        -0.00310852
  eigenvalues    EBANDS =      -183.59477988
  atomic energy  EATOM  =       760.74847491
  Solvation  Ediel_sol  =         0.00000000
  ---------------------------------------------------
  free energy    TOTEN  =       -45.28163725 eV

  energy without entropy =      -45.27852872  energy(sigma->0) =      -45.28060107


--------------------------------------------------------------------------------------------------------




--------------------------------------- Iteration      1(  15)  ---------------------------------------


    POTLOK:  cpu time      0.0238: real time      0.0238
    SETDIJ:  cpu time      0.0232: real time      0.0232
    EDDIAG:  cpu time      0.0536: real time      0.0536
  RMM-DIIS:  cpu time      0.2277: real time      0.2277
    ORTHCH:  cpu time      0.0058: real time      0.0058
       DOS:  cpu time      0.0003: real time      0.0003
    CHARGE:  cpu time      0.0503: real time      0.0503
    MIXING:  cpu time      0.0021: real time      0.0021
    --------------------------------------------
      LOOP:  cpu time      0.3867: real time      0.3868

 eigenvalue-minimisations  :   496
 total energy-change (2. order) :-0.2450879E-02  (-0.2161959E-03)
 number of electron      22.0000000 magnetization 
 augmentation part        0.4680323 magnetization 

 DIPCOR: dipole corrections for dipol
 direction  3 min pos   150,
 dipolmoment           0.000000      0.000000      0.212810 electrons x Angstroem
 Tr[quadrupol]       -39.010110

 energy correction for charged system         0.000000 eV
 dipol+quadrupol energy correction           -0.044056 eV
 added-field ion interaction          1.839848 eV  (added to PSCEN)


 Broyden mixing:
  rms(total) = 0.24575E-01    rms(broyden)= 0.24575E-01
  rms(prec ) = 0.45855E-01
  weight for this iteration     100.00

 eigenvalues of (default mixing * dielectric matrix)
  average eigenvalue GAMMA=   1.5285
  4.2688  2.7105  2.3340  1.8739  0.9389  0.6616  0.6616  0.7479  0.7479  0.3399

 Free energy of the ion-electron system (eV)
  ---------------------------------------------------
  alpha Z        PSCENC =        27.23750533
  Ewald energy   TEWEN  =      2846.08513144
  -Hartree energ DENC   =     -3559.89723976
  -exchange      EXHF   =         0.00000000
  -V(xc)+E(xc)   XCENC  =        74.94700803
  PAW double counting   =      1765.79293114    -1769.14188624
  entropy T*S    EENTRO =        -0.00404314
  eigenvalues    EBANDS =      -191.05196984
  atomic energy  EATOM  =       760.74847491
  Solvation  Ediel_sol  =         0.00000000
  ---------------------------------------------------
  free energy    TOTEN  =       -45.28408813 eV

  energy without entropy =      -45.28004499  energy(sigma->0) =      -45.28274041


--------------------------------------------------------------------------------------------------------




--------------------------------------- Iteration      1(  16)  ---------------------------------------


    POTLOK:  cpu time      0.0237: real time      0.0237
    SETDIJ:  cpu time      0.0229: real time      0.0229
    EDDIAG:  cpu time      0.0539: real time      0.0539
  RMM-DIIS:  cpu time      0.2398: real time      0.2398
    ORTHCH:  cpu time      0.0058: real time      0.0058
       DOS:  cpu time      0.0003: real time      0.0003
    CHARGE:  cpu time      0.0493: real time      0.0493
    MIXING:  cpu time      0.0021: real time      0.0021
    --------------------------------------------
      LOOP:  cpu time      0.3978: real time      0.3978

 eigenvalue-minimisations  :   507
 total energy-change (2. order) :-0.6185579E-02  (-0.2487453E-03)
 number of electron      22.0000000 magnetization 
 augmentation part        0.4693648 magnetization 

 DIPCOR: dipole corrections for dipol
 direction  3 min pos   157,
 dipolmoment           0.000000      0.000000      0.224351 electrons x Angstroem
 Tr[quadrupol]       -39.214349

 energy correction for charged system         0.000000 eV
 dipol+quadrupol energy correction           -0.048965 eV
 added-field ion interaction          6.474778 eV  (added to PSCEN)


 Broyden mixing:
  rms(total) = 0.42600E-01    rms(broyden)= 0.42600E-01
  rms(prec ) = 0.79040E-01
  weight for this iteration     100.00

 eigenvalues of (default mixing * dielectric matrix)
  average eigenvalue GAMMA=   1.5861
  4.5942  2.8536  2.2538  1.7639  1.7639  0.9108  0.6712  0.6712  0.7791  0.7791
  0.4062

 Free energy of the ion-electron system (eV)
  ---------------------------------------------------
  alpha Z        PSCENC =        31.86752692
  Ewald energy   TEWEN  =      2846.08513144
  -Hartree energ DENC   =     -3559.83805745
  -exchange      EXHF   =         0.00000000
  -V(xc)+E(xc)   XCENC  =        74.94796236
  PAW double counting   =      1765.53666769    -1768.88633560
  entropy T*S    EENTRO =        -0.00360356
  eigenvalues    EBANDS =      -195.74804042
  atomic energy  EATOM  =       760.74847491
  Solvation  Ediel_sol  =         0.00000000
  ---------------------------------------------------
  free energy    TOTEN  =       -45.29027371 eV

  energy without entropy =      -45.28667014  energy(sigma->0) =      -45.28907252


--------------------------------------------------------------------------------------------------------




--------------------------------------- Iteration      1(  17)  ---------------------------------------


    POTLOK:  cpu time      0.0236: real time      0.0236
    SETDIJ:  cpu time      0.0236: real time      0.0236
    EDDIAG:  cpu time      0.0534: real time      0.0534
  RMM-DIIS:  cpu time      0.2627: real time      0.2627
    ORTHCH:  cpu time      0.0058: real time      0.0058
       DOS:  cpu time      0.0003: real time      0.0003
    CHARGE:  cpu time      0.0513: real time      0.0513
    MIXING:  cpu time      0.0014: real time      0.0014
    --------------------------------------------
      LOOP:  cpu time      0.4221: real time      0.4221

 eigenvalue-minimisations  :   553
 total energy-change (2. order) : 0.8283696E-02  (-0.3770904E-03)
 number of electron      22.0000000 magnetization 
 augmentation part        0.4667407 magnetization 

 DIPCOR: dipole corrections for dipol
 direction  3 min pos   160,
 dipolmoment           0.000000      0.000000      0.212832 electrons x Angstroem
 Tr[quadrupol]       -39.326745

 energy correction for charged system         0.000000 eV
 dipol+quadrupol energy correction           -0.044066 eV
 added-field ion interaction          7.986175 eV  (added to PSCEN)


 Broyden mixing:
  rms(total) = 0.89790E-02    rms(broyden)= 0.89776E-02
  rms(prec ) = 0.18443E-01
  weight for this iteration     100.00

 eigenvalues of (default mixing * dielectric matrix)
  average eigenvalue GAMMA=   1.6163
  4.8967  3.1404  2.1375  2.1375  1.8351  1.0001  1.0001  0.6656  0.6656  0.7834
  0.7834  0.3504

 Free energy of the ion-electron system (eV)
  ---------------------------------------------------
  alpha Z        PSCENC =        33.38382345
  Ewald energy   TEWEN  =      2846.08513144
  -Hartree energ DENC   =     -3560.44256858
  -exchange      EXHF   =         0.00000000
  -V(xc)+E(xc)   XCENC  =        74.94966731
  PAW double counting   =      1765.85850115    -1769.20852095
  entropy T*S    EENTRO =        -0.00307716
  eigenvalues    EBANDS =      -196.65342158
  atomic energy  EATOM  =       760.74847491
  Solvation  Ediel_sol  =         0.00000000
  ---------------------------------------------------
  free energy    TOTEN  =       -45.28199001 eV

  energy without entropy =      -45.27891285  energy(sigma->0) =      -45.28096429


--------------------------------------------------------------------------------------------------------




--------------------------------------- Iteration      1(  18)  ---------------------------------------


    POTLOK:  cpu time      0.0232: real time      0.0232
    SETDIJ:  cpu time      0.0243: real time      0.0243
    EDDIAG:  cpu time      0.0540: real time      0.0540
  RMM-DIIS:  cpu time      0.2213: real time      0.2213
    ORTHCH:  cpu time      0.0056: real time      0.0056
       DOS:  cpu time      0.0003: real time      0.0003
    CHARGE:  cpu time      0.0493: real time      0.0493
    MIXING:  cpu time      0.0023: real time      0.0023
    --------------------------------------------
      LOOP:  cpu time      0.3803: real time      0.3804

 eigenvalue-minimisations  :   487
 total energy-change (2. order) : 0.5727154E-03  (-0.9931131E-04)
 number of electron      22.0000000 magnetization 
 augmentation part        0.4660627 magnetization 

 DIPCOR: dipole corrections for dipol
 direction  3 min pos   159,
 dipolmoment           0.000000      0.000000      0.205449 electrons x Angstroem
 Tr[quadrupol]       -39.310044

 energy correction for charged system         0.000000 eV
 dipol+quadrupol energy correction           -0.041062 eV
 added-field ion interaction          7.115861 eV  (added to PSCEN)


 Broyden mixing:
  rms(total) = 0.13145E-02    rms(broyden)= 0.13118E-02
  rms(prec ) = 0.19749E-02
  weight for this iteration     100.00

 eigenvalues of (default mixing * dielectric matrix)
  average eigenvalue GAMMA=   1.6803
  5.4513  2.8048  2.6647  2.6647  1.8648  1.0710  1.0710  0.9789  0.6661  0.6661
  0.7938  0.7938  0.3533

 Free energy of the ion-electron system (eV)
  ---------------------------------------------------
  alpha Z        PSCENC =        32.51651366
  Ewald energy   TEWEN  =      2846.08513144
  -Hartree energ DENC   =     -3560.61064845
  -exchange      EXHF   =         0.00000000
  -V(xc)+E(xc)   XCENC  =        74.94873656
  PAW double counting   =      1766.20176888    -1769.55094095
  entropy T*S    EENTRO =        -0.00186810
  eigenvalues    EBANDS =      -195.61858524
  atomic energy  EATOM  =       760.74847491
  Solvation  Ediel_sol  =         0.00000000
  ---------------------------------------------------
  free energy    TOTEN  =       -45.28141729 eV

  energy without entropy =      -45.27954919  energy(sigma->0) =      -45.28079459


--------------------------------------------------------------------------------------------------------




--------------------------------------- Iteration      1(  19)  ---------------------------------------


    POTLOK:  cpu time      0.0228: real time      0.0228
    SETDIJ:  cpu time      0.0248: real time      0.0248
    EDDIAG:  cpu time      0.0622: real time      0.0622
  RMM-DIIS:  cpu time      0.2480: real time      0.2481
    ORTHCH:  cpu time      0.0062: real time      0.0062
       DOS:  cpu time      0.0003: real time      0.0003
    CHARGE:  cpu time      0.0528: real time      0.0528
    MIXING:  cpu time      0.0017: real time      0.0017
    --------------------------------------------
      LOOP:  cpu time      0.4188: real time      0.4188

 eigenvalue-minimisations  :   502
 total energy-change (2. order) :-0.9261218E-03  (-0.1224506E-03)
 number of electron      22.0000000 magnetization 
 augmentation part        0.4651385 magnetization 

 DIPCOR: dipole corrections for dipol
 direction  3 min pos   155,
 dipolmoment           0.000000      0.000000      0.197783 electrons x Angstroem
 Tr[quadrupol]       -39.211421

 energy correction for charged system         0.000000 eV
 dipol+quadrupol energy correction           -0.038054 eV
 added-field ion interaction          4.565714 eV  (added to PSCEN)


 Broyden mixing:
  rms(total) = 0.12525E-01    rms(broyden)= 0.12525E-01
  rms(prec ) = 0.23422E-01
  weight for this iteration     100.00

 eigenvalues of (default mixing * dielectric matrix)
  average eigenvalue GAMMA=   1.7545
  5.8565  3.8935  2.6234  2.6234  1.7016  1.2051  1.2051  1.2864  0.6666  0.6666
  0.8906  0.7940  0.7940  0.3561

 Free energy of the ion-electron system (eV)
  ---------------------------------------------------
  alpha Z        PSCENC =        29.96937321
  Ewald energy   TEWEN  =      2846.08513144
  -Hartree energ DENC   =     -3560.83104066
  -exchange      EXHF   =         0.00000000
  -V(xc)+E(xc)   XCENC  =        74.94948629
  PAW double counting   =      1767.26049922    -1770.60916693
  entropy T*S    EENTRO =        -0.00008583
  eigenvalues    EBANDS =      -192.85501508
  atomic energy  EATOM  =       760.74847491
  Solvation  Ediel_sol  =         0.00000000
  ---------------------------------------------------
  free energy    TOTEN  =       -45.28234342 eV

  energy without entropy =      -45.28225759  energy(sigma->0) =      -45.28231481


--------------------------------------------------------------------------------------------------------




--------------------------------------- Iteration      1(  20)  ---------------------------------------


    POTLOK:  cpu time      0.0234: real time      0.0234
    SETDIJ:  cpu time      0.0246: real time      0.0246
    EDDIAG:  cpu time      0.0558: real time      0.0558
  RMM-DIIS:  cpu time      0.1660: real time      0.1660
    ORTHCH:  cpu time      0.0058: real time      0.0058
       DOS:  cpu time      0.0002: real time      0.0002
    --------------------------------------------
      LOOP:  cpu time      0.2758: real time      0.2758

 eigenvalue-minimisations  :   337
 total energy-change (2. order) : 0.7742564E-04  (-0.9081253E-05)
 number of electron      22.0000000 magnetization 
 augmentation part        0.4651385 magnetization 

 DIPCOR: dipole corrections for dipol
 direction  3 min pos   153,
 dipolmoment           0.000000      0.000000      0.196345 electrons x Angstroem
 Tr[quadrupol]       -39.159816

 energy correction for charged system         0.000000 eV
 dipol+quadrupol energy correction           -0.037503 eV
 added-field ion interaction          3.398502 eV  (added to PSCEN)


 Free energy of the ion-electron system (eV)
  ---------------------------------------------------
  alpha Z        PSCENC =        28.80271337
  Ewald energy   TEWEN  =      2846.08513144
  -Hartree energ DENC   =     -3560.83306300
  -exchange      EXHF   =         0.00000000
  -V(xc)+E(xc)   XCENC  =        74.94928488
  PAW double counting   =      1767.07210680    -1770.42086533
  entropy T*S    EENTRO =        -0.00026173
  eigenvalues    EBANDS =      -191.68578734
  atomic energy  EATOM  =       760.74847491
  Solvation  Ediel_sol  =         0.00000000
  ---------------------------------------------------
  free energy    TOTEN  =       -45.28226599 eV

  energy without entropy =      -45.28200426  energy(sigma->0) =      -45.28217875


--------------------------------------------------------------------------------------------------------




 average (electrostatic) potential at core
  the test charge radii are     0.6991  0.5201
  (the norm of the test charge is              1.0000)
       1 -55.7624       2 -55.2477       3 -55.0629       4 -55.9386       5 -55.1765
       6 -42.5879       7 -42.5879



 E-fermi :  -0.0418     XC(G=0):  -5.8728     alpha+bet : -5.8290

 Fermi energy:        -0.0418225198

 k-point     1 :       0.0000    0.0000    0.0000
  band No.  band energies     occupation 
      1     -20.9816      2.00000
      2     -18.3244      2.00000
      3     -14.6234      2.00000
      4      -9.8531      2.00000
      5      -5.7415      2.00000
      6      -5.6873      2.00000
      7      -4.7476      2.00000
      8      -2.8354      2.00000
      9      -2.8039      2.00000
     10      -0.3825      2.03678
     11       0.1262      0.00075
     12       1.5544     -0.00000
     13       3.5478     -0.00000
     14       3.9917     -0.00000
     15       4.4617     -0.00000
     16       6.0325      0.00000

 k-point     2 :       0.1429    0.0000    0.0000
  band No.  band energies     occupation 
      1     -20.6072      2.00000
      2     -17.9573      2.00000
      3     -14.2675      2.00000
      4     -10.0582      2.00000
      5      -7.0218      2.00000
      6      -5.9104      2.00000
      7      -5.4174      2.00000
      8      -3.4255      2.00000
      9      -2.7424      2.00000
     10      -1.9221      2.00000
     11      -0.1575      1.82034
     12       2.0586     -0.00000
     13       3.6975     -0.00000
     14       4.8234     -0.00000
     15       5.8507      0.00000
     16       6.5411      0.00000

 k-point     3 :       0.0000    0.1429    0.0000
  band No.  band energies     occupation 
      1     -20.6165      2.00000
      2     -17.9971      2.00000
      3     -14.4388      2.00000
      4      -9.7461      2.00000
      5      -7.5635      2.00000
      6      -5.4612      2.00000
      7      -4.7078      2.00000
      8      -4.4536      2.00000
      9      -2.6305      2.00000
     10      -0.5273      2.00319
     11       0.0474      0.32160
     12       1.8200     -0.00000
     13       2.7915     -0.00000
     14       5.2426     -0.00000
     15       5.6930      0.00000
     16       6.7784      0.00000

 k-point     4 :       0.2857    0.0000    0.0000
  band No.  band energies     occupation 
      1     -19.4962      2.00000
      2     -16.8957      2.00000
      3     -13.3001      2.00000
      4     -11.8938      2.00000
      5      -9.0110      2.00000
[...]
  ---------------------------------------------------
  alpha Z        PSCENC =        23.12395381
  Ewald energy   TEWEN  =      2810.96605846
  -Hartree energ DENC   =     -3533.89783525
  -exchange      EXHF   =         0.00000000
  -V(xc)+E(xc)   XCENC  =        74.89609851
  PAW double counting   =      1809.14687712    -1812.50273366
  entropy T*S    EENTRO =        -0.00422146
  eigenvalues    EBANDS =      -179.70521354
  atomic energy  EATOM  =       760.74847491
  Solvation  Ediel_sol  =         0.00000000
  ---------------------------------------------------
  free energy    TOTEN  =       -47.22854110 eV

  energy without entropy =      -47.22431964  energy(sigma->0) =      -47.22713395


--------------------------------------------------------------------------------------------------------




 average (electrostatic) potential at core
  the test charge radii are     0.6991  0.5201
  (the norm of the test charge is              1.0000)
       1 -55.2361       2 -54.4944       3 -54.8265       4 -55.3500       5 -54.8067
       6 -39.6514       7 -39.6514



 E-fermi :   0.1475     XC(G=0):  -5.8765     alpha+bet : -6.0871

 Fermi energy:         0.1474700736

 k-point     1 :       0.0000    0.0000    0.0000
  band No.  band energies     occupation 
      1     -20.2665      2.00000
      2     -17.5119      2.00000
      3     -13.9782      2.00000
      4      -9.3469      2.00000
      5      -5.2100      2.00000
      6      -5.1257      2.00000
      7      -4.2439      2.00000
      8      -2.4656      2.00000
      9      -2.2806      2.00000
     10      -0.0844      2.06948
     11       0.1960      0.60218
     12       1.4420     -0.00000
     13       3.8975     -0.00000
     14       4.2667     -0.00000
     15       4.9405     -0.00000
     16       5.2866     -0.00000

 k-point     2 :       0.1429    0.0000    0.0000
  band No.  band energies     occupation 
      1     -19.8977      2.00000
      2     -17.1589      2.00000
      3     -13.6045      2.00000
      4      -9.3803      2.00000
      5      -6.6109      2.00000
      6      -5.1635      2.00000
      7      -4.8563      2.00000
      8      -3.1723      2.00000
      9      -2.1898      2.00000
     10      -1.6540      2.00000
     11       0.0875      1.48315
     12       1.8261     -0.00000
     13       4.0316     -0.00000
     14       4.6063     -0.00000
     15       5.8868      0.00000
     16       6.4525      0.00000

 k-point     3 :       0.0000    0.1429    0.0000
  band No.  band energies     occupation 
      1     -19.8992      2.00000
      2     -17.1753      2.00000
      3     -13.7795      2.00000
      4      -9.2215      2.00000
      5      -7.0168      2.00000
      6      -4.9307      2.00000
      7      -4.0974      2.00000
      8      -3.9618      2.00000
      9      -2.2937      2.00000
     10      -0.2024      2.03292
     11       0.1199      1.23073
     12       1.7019     -0.00000
     13       3.0738     -0.00000
     14       4.5873     -0.00000
     15       5.8682      0.00000
     16       7.0104      0.00000

 k-point     4 :       0.2857    0.0000    0.0000
  band No.  band energies     occupation 
      1     -18.8082      2.00000
      2     -16.1729      2.00000
      3     -12.5056      2.00000
      4     -11.0231      2.00000
      5      -8.0492      2.00000
      6      -7.1073      2.00000
      7      -4.9095      2.00000
      8      -4.1157      2.00000
      9      -3.1054      2.00000
     10      -2.0789      2.00000
     11      -0.5782      2.00000
     12       2.9523     -0.00000
     13       4.3174     -0.00000
     14       5.4692     -0.00000
     15       6.9469      0.00000
     16       7.6845      0.00000

 k-point     5 :       0.0000    0.2857    0.0000
  band No.  band energies     occupation 
      1     -18.8119      2.00000
      2     -16.2145      2.00000
      3     -13.5664      2.00000
      4      -9.7453      2.00000
      5      -9.2935      2.00000
      6      -6.2815      2.00000
      7      -4.7133      2.00000
      8      -4.1589      2.00000
      9      -1.9205      2.00000
     10      -0.5936      2.00000
     11      -0.1649      2.04967
     12       1.7333     -0.00000
     13       2.7522     -0.00000
     14       5.3566     -0.00000
     15       7.0469      0.00000
     16       7.8635      0.00000

 k-point     6 :       0.4286    0.0000    0.0000
  band No.  band energies     occupation 
      1     -17.0872      2.00000
      2     -15.4295      2.00000
      3     -12.8901      2.00000
      4     -11.1294      2.00000
      5     -10.4480      2.00000
      6      -7.9123      2.00000
      7      -5.7766      2.00000
      8      -4.0394      2.00000
      9      -3.1369      2.00000
     10      -2.3408      2.00000
     11      -0.9554      2.00000
     12       4.2085     -0.00000
     13       4.5260     -0.00000
     14       6.5072      0.00000
     15       8.0911      0.00000
     16       8.5033      0.00000

 k-point     7 :       0.0000    0.4286    0.0000
  band No.  band energies     occupation 
      1     -17.0775      2.00000
      2     -15.0067      2.00000
      3     -14.8033      2.00000
      4     -10.9518      2.00000
      5     -10.2728      2.00000
      6      -6.6349      2.00000
      7      -6.0277      2.00000
      8      -3.1767      2.00000
      9      -1.8566      2.00000
     10      -0.5058      2.00004
     11      -0.5035      2.00004
     12       0.6829     -0.00101
     13       4.1551     -0.00000
     14       6.2991      0.00000
     15       7.4877      0.00000
     16       8.1616      0.00000

 k-point     8 :       0.1429    0.1429    0.0000
  band No.  band energies     occupation 
      1     -19.5318      2.00000
      2     -16.8237      2.00000
      3     -13.4096      2.00000
      4      -9.2264      2.00000
      5      -6.7366      2.00000
      6      -6.3583      2.00000
      7      -4.9331      2.00000
      8      -3.8622      2.00000
      9      -2.9976      2.00000
     10      -1.6088      2.00000
     11      -0.0861      2.06984
     12       2.1389     -0.00000
     13       3.1994     -0.00000
     14       4.9352     -0.00000
     15       7.3516      0.00000
     16       7.5840      0.00000

 k-point     9 :       0.2857    0.1429    0.0000
  band No.  band energies     occupation 
      1     -18.4469      2.00000
      2     -15.8421      2.00000
      3     -12.3200      2.00000
      4     -10.7326      2.00000
      5      -7.8129      2.00000
      6      -6.9929      2.00000
      7      -5.8471      2.00000
      8      -4.8481      2.00000
      9      -3.5825      2.00000
     10      -3.0990      2.00000
     11      -0.5436      2.00001
     12       3.1078     -0.00000
     13       3.3644     -0.00000
     14       5.8325      0.00000
     15       7.1925      0.00000
     16       8.2749      0.00000

 k-point    10 :      -0.1429    0.2857    0.0000
  band No.  band energies     occupation 
      1     -18.4490      2.00000
      2     -15.8662      2.00000
      3     -13.2104      2.00000
      4      -9.4438      2.00000
      5      -9.1324      2.00000
      6      -6.4051      2.00000
      7      -5.4029      2.00000
      8      -4.9752      2.00000
      9      -3.1689      2.00000
     10      -1.7173      2.00000
     11      -0.5269      2.00002
     12       1.7713     -0.00000
     13       3.1219     -0.00000
     14       5.7290      0.00000
     15       7.3502      0.00000
     16       8.6884      0.00000

 k-point    11 :       0.4286    0.1429    0.0000
  band No.  band energies     occupation 
      1     -16.7349      2.00000
      2     -15.0953      2.00000
      3     -12.5699      2.00000
      4     -10.8734      2.00000
      5     -10.2468      2.00000
      6      -7.7830      2.00000
      7      -5.7695      2.00000
      8      -4.7710      2.00000
      9      -4.0558      2.00000
     10      -3.7640      2.00000
     11      -0.9214      2.00000
     12       3.2480     -0.00000
     13       4.3829     -0.00000
     14       6.6869      0.00000
     15       7.9796      0.00000
     16       8.7889      0.00000

 k-point    12 :      -0.1429    0.4286    0.0000
  band No.  band energies     occupation 
      1     -16.7231      2.00000
      2     -14.6460      2.00000
      3     -14.4664      2.00000
      4     -10.6763      2.00000
      5      -9.9582      2.00000
      6      -6.6653      2.00000
      7      -5.9590      2.00000
      8      -4.5973      2.00000
      9      -3.2723      2.00000
     10      -2.0473      2.00000
     11      -0.5318      2.00002
     12       0.7344     -0.00027
     13       4.3639     -0.00000
     14       6.3163      0.00000
     15       7.6611      0.00000
     16       8.8514      0.00000

 k-point    13 :       0.2857    0.2857    0.0000
  band No.  band energies     occupation 
      1     -17.3782      2.00000
      2     -14.8915      2.00000
      3     -12.1566      2.00000
      4      -9.9972      2.00000
      5      -8.4605      2.00000
      6      -7.3023      2.00000
      7      -7.0595      2.00000
      8      -5.6286      2.00000
      9      -4.8236      2.00000
     10      -3.8705      2.00000
     11      -0.6627      2.00000
     12       1.4344     -0.00000
     13       4.0523     -0.00000
     14       6.5094      0.00000
     15       6.7421      0.00000
     16       8.6548      0.00000

 k-point    14 :       0.4286    0.2857    0.0000
  band No.  band energies     occupation 
      1     -15.6928      2.00000
      2     -14.1090      2.00000
      3     -11.6934      2.00000
      4     -10.5500      2.00000
      5      -9.6849      2.00000
      6      -7.8357      2.00000
      7      -7.0430      2.00000
      8      -6.3937      2.00000
      9      -5.6614      2.00000
     10      -4.8068      2.00000
     11      -0.9658      2.00000
     12       1.2652     -0.00000
     13       4.4108     -0.00000
     14       6.5003      0.00000
     15       8.1510      0.00000
     16       8.2632      0.00000

 k-point    15 :      -0.2857    0.4286    0.0000
  band No.  band energies     occupation 
      1     -15.6782      2.00000
      2     -13.6212      2.00000
      3     -13.4668      2.00000
      4     -10.1547      2.00000
      5      -9.0882      2.00000
      6      -7.8101      2.00000
      7      -6.6004      2.00000
      8      -6.2355      2.00000
      9      -5.2613      2.00000
     10      -4.6156      2.00000
     11      -0.8898      2.00000
     12       0.4827     -0.03918
     13       4.8870     -0.00000
     14       5.9892      0.00000
     15       7.9380      0.00000
     16       8.2459      0.00000

 k-point    16 :       0.4286    0.4286    0.0000
  band No.  band energies     occupation 
      1     -14.0332      2.00000
      2     -12.5776      2.00000
      3     -11.8722      2.00000
      4     -10.9409      2.00000
      5      -9.5530      2.00000
      6      -8.4826      2.00000
      7      -7.4944      2.00000
      8      -7.3833      2.00000
      9      -6.1418      2.00000
     10      -5.8485      2.00000
     11      -1.1458      2.00000
     12       0.1588      0.90387
     13       4.6248     -0.00000
     14       6.0525      0.00000
     15       7.3418      0.00000
     16       8.0398      0.00000


--------------------------------------------------------------------------------------------------------


 soft charge-density along one line, spin component           1
         0         1         2         3         4         5         6         7         8         9
 total charge-density along one line

 pseudopotential strength for first ion, spin component:           1
 10.032  13.336  -0.000  -0.000   0.000   0.000   0.001  -0.000
 13.336  17.728  -0.000  -0.001   0.000   0.000   0.002  -0.000
 -0.000  -0.000  -4.190  -0.000  -0.000   8.203   0.000   0.000
 -0.000  -0.001  -0.000  -4.190  -0.000   0.000   8.205   0.000
  0.000   0.000  -0.000  -0.000  -4.190   0.000   0.000   8.204
  0.000   0.000   8.203   0.000   0.000 -18.188  -0.000  -0.000
  0.001   0.002   0.000   8.205   0.000  -0.000 -18.192  -0.000
 -0.000  -0.000   0.000   0.000   8.204  -0.000  -0.000 -18.191
 total augmentation occupancy for first ion, spin component:           1
  7.192  -3.146   0.000  -0.038   0.000   0.000  -0.004   0.000
 -3.146   1.474   0.000   0.029   0.000   0.000   0.002   0.000
  0.000   0.000   1.557   0.000   0.000   0.128   0.000   0.000
 -0.038   0.029   0.000   1.524   0.000   0.000   0.127   0.000
  0.000   0.000   0.000   0.000   1.545   0.000   0.000   0.130
  0.000   0.000   0.128   0.000   0.000   0.012   0.000   0.000
 -0.004   0.002   0.000   0.127   0.000   0.000   0.012   0.000
  0.000   0.000   0.000   0.000   0.130   0.000   0.000   0.013


------------------------ aborting loop because EDIFF is reached ----------------------------------------


    CHARGE:  cpu time      0.0506: real time      0.0506
    FORLOC:  cpu time      0.0020: real time      0.0020
    FORNL :  cpu time      0.2125: real time      0.2126
    STRESS:  cpu time      0.6476: real time      0.6476
    FORCOR:  cpu time      0.0242: real time      0.0242
    FORHAR:  cpu time      0.0056: real time      0.0056
    MIXING:  cpu time      0.0006: real time      0.0006
    OFIELD:  cpu time      0.0000: real time      0.0000

  FORCE on cell =-STRESS in cart. coord.  units (eV):
  Direction    XX          YY          ZZ          XY          YZ          ZX
  --------------------------------------------------------------------------------------
  Alpha Z    25.44171    25.44171    25.44171
  Ewald    3398.32691  3329.04138 -3916.40259    -0.00000    -0.00000    -0.00000
  Hartree  3481.69472  3465.52823 -3414.29166    -0.00000    -0.00000    -0.00000
  E(xc)     -80.84284   -81.33076   -81.37733    -0.00000     0.00000     0.00000
  Local   -7132.19113 -7053.23772  7077.36855    -0.00000    -0.00000    -0.00000
  n-local   -22.76490   -18.80966   -21.17967     0.13231     0.00000    -0.00000
  augment    -1.33413    -1.33408    -1.37085    -0.00000     0.00000     0.00000
  Kinetic   344.99434   330.79591   328.24274    -1.88803     0.00000    -0.00000
  Fock        0.00000     0.00000     0.00000     0.00000     0.00000     0.00000
  -------------------------------------------------------------------------------------
  Total      13.32468    -3.90498    -3.56909     0.00000     0.00000     0.00000
  in kB     229.53951   -67.26976   -61.48337     0.00000     0.00000     0.00000
  external pressure =       33.60 kB  Pullay stress =        0.00 kB


 VOLUME and BASIS-vectors are now :
 -----------------------------------------------------------------------------
  energy-cutoff  :      800.00
  volume of cell :       93.01
      direct lattice vectors                 reciprocal lattice vectors
     2.526300000  0.000000000  0.000000000     0.395835807  0.000000000  0.000000000
     0.000000000  2.526300000  0.000000000     0.000000000  0.395835807  0.000000000
     0.000000000  0.000000000 14.572700000     0.000000000  0.000000000  0.068621463

  length of vectors
     2.526300000  2.526300000 14.572700000     0.395835807  0.395835807  0.068621463


 FORCES acting on ions
    electron-ion (+dipol)            ewald-force                    non-local-force                 convergence-correction
 -----------------------------------------------------------------------------------------------
   0.656E-15 -.623E-13 -.724E+02   -.244E-14 -.185E-14 0.734E+02   0.183E-21 -.578E-21 -.468E+00   -.259E-14 0.118E-13 -.518E+00
   0.197E-13 -.114E-13 0.480E+03   -.137E-11 -.211E-14 -.477E+03   0.248E-21 -.516E-22 -.589E+00   0.194E-13 -.928E-14 -.193E+00
   0.140E-13 -.281E-13 -.630E+03   -.258E-14 0.456E-15 0.638E+03   0.227E-22 0.105E-23 -.931E+01   0.119E-14 0.181E-14 -.388E+00
   0.176E-13 -.363E-13 0.222E+03   -.255E-13 0.749E-15 -.222E+03   -.268E-21 0.150E-22 -.181E+01   0.120E-13 0.139E-13 -.373E+00
   -.104E-14 0.633E-13 -.362E+03   0.717E-14 0.934E-15 0.365E+03   -.988E-22 0.718E-22 -.539E+00   0.898E-15 -.365E-14 -.550E+00
   -.175E+02 -.352E-13 0.184E+03   0.211E+02 -.464E-15 -.189E+03   -.361E+01 0.399E-18 0.467E+01   -.936E-02 -.167E-14 0.113E-01
   0.175E+02 0.267E-13 0.184E+03   -.211E+02 0.285E-15 -.189E+03   0.361E+01 -.161E-18 0.467E+01   0.936E-02 -.882E-15 0.113E-01
 -----------------------------------------------------------------------------------------------
   0.782E-13 -.832E-13 0.537E+01   0.000E+00 -.200E-14 0.000E+00   0.000E+00 0.238E-18 -.338E+01   0.301E-13 0.120E-13 -.200E+01


 POSITION                                       TOTAL-FORCE (eV/Angst)
 -----------------------------------------------------------------------------------
      0.00000      0.00000      2.78630         0.000000     -0.000000     -0.057355
      1.26315      1.26315      0.99998         0.000000      0.000000      1.851297
      1.26315      1.26315      4.57277         0.000000      0.000000     -2.085512
      1.26315      0.00000      1.89314         0.000000      0.000000     -1.847592
      0.00000      1.26315      3.67961         0.000000     -0.000000      2.128700
      1.98137      1.26315      0.23497        -0.012076     -0.000000      0.005231
      0.54493      1.26315      0.23497         0.012076      0.000000      0.005231
 -----------------------------------------------------------------------------------
    total drift:                                0.000000     -0.000000     -0.012679


--------------------------------------------------------------------------------------------------------



  FREE ENERGIE OF THE ION-ELECTRON SYSTEM (eV)
  ---------------------------------------------------
  free  energy   TOTEN  =       -47.22854110 eV

  energy  without entropy=      -47.22431964  energy(sigma->0) =      -47.22713395

 d Force = 0.4483603E-03[-0.282E-04, 0.925E-03]  d Energy = 0.6762783E-03-0.228E-03
 d Force =-0.1662351E+01[-0.166E+01,-0.166E+01]  d Ewald  =-0.1662353E+01 0.211E-05


--------------------------------------------------------------------------------------------------------


    POTLOK:  cpu time      0.0466: real time      0.0466


--------------------------------------------------------------------------------------------------------


 Quasi-Newton relaxation of ions (Broydens 2nd method)
  g(Force)  = 0.167E-04   g(Stress)= 0.000E+00

 retain information from N=  2 steps
 eigenvalues of (default step * inverse Hessian matrix)
  average eigenvalue of G=   2.0624
 eigenvalue spectrum of G is  0.1913  3.9336


--------------------------------------------------------------------------------------------------------


  
 reached required accuracy - stopping structural energy minimisation
 writing wavefunctions
     LOOP+:  cpu time      1.7737: real time      1.7785
    4ORBIT:  cpu time      0.0000: real time      0.0000

 total amount of memory used by VASP MPI-rank0    51383. kBytes
=======================================================================

   base      :      30000. kBytes
   nonlr-proj:        633. kBytes
   fftplans  :      10383. kBytes
   grid      :       5349. kBytes
   one-center:         21. kBytes
   wavefun   :       4997. kBytes

  
  
 General timing and accounting informations for this job:
 ========================================================
  
                  Total CPU time used (sec):       40.449
                            User time (sec):       35.970
                          System time (sec):        4.480
                         Elapsed time (sec):       40.657
  
                   Maximum memory used (kb):       82000.
                   Average memory used (kb):          N/A
  
                          Minor page faults:       820741
                          Major page faults:            1
                 Voluntary context switches:         1230
