 vasp.6.4.2 20Jul23 (build Oct 18 2023 12:49:41) complex                         
 executed on             LinuxGNU date 2025.06.06  15:39:21
 running    8 mpi-ranks, with    1 threads/rank, on    1 nodes
 distrk:  each k-point on    8 cores,    1 groups
 distr:  one band on NCORE=   1 cores,    8 groups


--------------------------------------------------------------------------------------------------------


 INCAR:
   SYSTEM = carbon 100
   ISMEAR = 1
   SIGMA = 0.2
   ENCUT = 800
   LREAL = auto
   ALGO = F
   IDIPOL = 3
   LDIPOL = T
   LCHARG = .FALSE.
   NSW = 30
   ISIF = 2
   IBRION = 1
   POTIM = 0.5
   EDIFFG = -0.025
   ADDGRID = T
   NCORE = 1
   NSIM = 4

 POTCAR:    PAW_PBE C 08Apr2002                   
 POTCAR:    PAW_PBE H 15Jun2001                   
 POTCAR:    PAW_PBE C 08Apr2002                   
   SHA256 =  253f7b50bb8d59471dbedb8285d89021f4a42ed1a2c5d38a03a736e69125dd95 C/POTCAR              
   COPYR  = (c) Copyright 08Apr2002 Georg Kresse                                                    
   COPYR  = This file is part of the software VASP. Any use, copying, and all other rights are regul
   COPYR  = If you do not have a valid VASP license, you may not use, copy or distribute this file. 
   VRHFIN =C: s2p2                                                                                  
   LEXCH  = PE                                                                                      
   EATOM  =   147.1560 eV,   10.8157 Ry                                                             
                                                                                                    
   TITEL  = PAW_PBE C 08Apr2002                                                                     
   LULTRA =        F    use ultrasoft PP ?                                                          
   IUNSCR =        1    unscreen: 0-lin 1-nonlin 2-no                                               
   RPACOR =    1.200    partial core radius                                                         
   POMASS =   12.011; ZVAL   =    4.000    mass and valenz                                          
   RCORE  =    1.500    outmost cutoff radius                                                       
   RWIGS  =    1.630; RWIGS  =    0.863    wigner-seitz radius (au A)                               
   ENMAX  =  400.000; ENMIN  =  300.000 eV                                                          
   ICORE  =        2    local potential                                                             
   LCOR   =        T    correct aug charges                                                         
   LPAW   =        T    paw PP                                                                      
   EAUG   =  644.873                                                                                
   DEXC   =    0.000                                                                                
   RMAX   =    1.529    core radius for proj-oper                                                   
   RAUG   =    1.300    factor for augmentation sphere                                              
   RDEP   =    1.501    radius for radial grids                                                     
   RDEPT  =    1.300    core radius for aug-charge                                                  
                                                                                                    
   Atomic configuration                                                                             
    4 entries                                                                                       
     n  l   j            E        occ.                                                              
     1  0  0.50      -273.3789   2.0000                                                             
     2  0  0.50       -13.7508   2.0000                                                             
     2  1  0.50        -5.2854   2.0000                                                             
     3  2  1.50        -5.4423   0.0000                                                             
   Description                                                                                      
     l       E           TYP  RCUT    TYP  RCUT                                                     
     0    -13.7508458     23  1.200                                                                 
     0     -8.2022199     23  1.200                                                                 
     1     -5.2854383     23  1.500                                                                 
     1     34.0145650     23  1.500                                                                 
     2     -5.4423304      7  1.500                                                                 
  local pseudopotential read in
  partial core-charges read in
  partial kinetic energy density read in
  atomic valenz-charges read in
  non local Contribution for L=           0  read in
    real space projection operators read in
  non local Contribution for L=           0  read in
    real space projection operators read in
  non local Contribution for L=           1  read in
    real space projection operators read in
  non local Contribution for L=           1  read in
    real space projection operators read in
    PAW grid and wavefunctions read in

   number of l-projection  operators is LMAX  =           4
   number of lm-projection operators is LMMAX =           8

 POTCAR:    PAW_PBE H 15Jun2001                   
   SHA256 =  030f79b5d3ab3cf0e668861823c8fb652ff669f3e15e46930bd03bfd63a607b6 H/POTCAR              
   COPYR  = (c) Copyright 15Jun2001 Georg Kresse                                                    
   COPYR  = This file is part of the software VASP. Any use, copying, and all other rights are regul
   COPYR  = If you do not have a valid VASP license, you may not use, copy or distribute this file. 
   VRHFIN =H: ultrasoft test                                                                        
   LEXCH  = PE                                                                                      
   EATOM  =    12.4884 eV,    0.9179 Ry                                                             
                                                                                                    
   TITEL  = PAW_PBE H 15Jun2001                                                                     
   LULTRA =        F    use ultrasoft PP ?                                                          
   IUNSCR =        0    unscreen: 0-lin 1-nonlin 2-no                                               
   RPACOR =    0.000    partial core radius                                                         
   POMASS =    1.000; ZVAL   =    1.000    mass and valenz                                          
   RCORE  =    1.100    outmost cutoff radius                                                       
   RWIGS  =    0.700; RWIGS  =    0.370    wigner-seitz radius (au A)                               
   ENMAX  =  250.000; ENMIN  =  200.000 eV                                                          
   RCLOC  =    0.701    cutoff for local pot                                                        
   LCOR   =        T    correct aug charges                                                         
   LPAW   =        T    paw PP                                                                      
   EAUG   =  400.000                                                                                
   RMAX   =    1.123    core radius for proj-oper                                                   
   RAUG   =    1.200    factor for augmentation sphere                                              
   RDEP   =    1.112    radius for radial grids                                                     
   RDEPT  =    0.926    core radius for aug-charge                                                  
                                                                                                    
   Atomic configuration                                                                             
    2 entries                                                                                       
     n  l   j            E        occ.                                                              
     1  0  0.50        -6.4927   1.0000                                                             
     2  1  0.50        -3.4015   0.0000                                                             
   Description                                                                                      
     l       E           TYP  RCUT    TYP  RCUT                                                     
     0     -6.4927494     23  1.100                                                                 
     0      6.8029130     23  1.100                                                                 
     1     -4.0817478     23  1.100                                                                 
  local pseudopotential read in
  atomic valenz-charges read in
  non local Contribution for L=           0  read in
    real space projection operators read in
  non local Contribution for L=           0  read in
    real space projection operators read in
  non local Contribution for L=           1  read in
    real space projection operators read in
    PAW grid and wavefunctions read in

   number of l-projection  operators is LMAX  =           3
   number of lm-projection operators is LMMAX =           5

 Optimization of the real space projectors (new method)

 maximal supplied QI-value         = 25.13
 optimisation between [QCUT,QGAM] = [ 14.33, 28.90] = [ 57.47,233.94] Ry 
 Optimized for a Real-space Cutoff    0.89 Angstroem

   l    n(q)    QCUT    max X(q) W(low)/X(q) W(high)/X(q)  e(spline) 
   0      8    14.326   115.676    0.20E-03    0.54E-03    0.88E-07
   0      8    14.326    87.132    0.19E-03    0.54E-03    0.88E-07
   1      7    14.326     4.429    0.49E-03    0.47E-03    0.10E-06
   1      7    14.326     2.733    0.38E-03    0.36E-03    0.91E-07
 Optimization of the real space projectors (new method)

 maximal supplied QI-value         = 34.20
 optimisation between [QCUT,QGAM] = [ 14.37, 28.73] = [ 57.79,231.16] Ry 
 Optimized for a Real-space Cutoff    0.92 Angstroem

   l    n(q)    QCUT    max X(q) W(low)/X(q) W(high)/X(q)  e(spline) 
   0      8    14.366    19.460    0.37E-03    0.44E-03    0.12E-06
   0      8    14.366    12.209    0.35E-03    0.42E-03    0.11E-06
   1      7    14.366     4.655    0.78E-04    0.25E-03    0.18E-06
  PAW_PBE C 08Apr2002                   :
 energy of atom  1       EATOM= -147.1560
 kinetic energy error for atom=    0.0016 (will be added to EATOM!!)
  PAW_PBE H 15Jun2001                   :
 energy of atom  2       EATOM=  -12.4884
 kinetic energy error for atom=    0.0002 (will be added to EATOM!!)


 POSCAR:  C
  positions in direct lattice
  velocities in cartesian coordinates

  There are predictor-coordinates on the file.
  we can't use them due to change of POTIM!
 exchange correlation table for  LEXCH =        8
   RHO(1)=    0.500       N(1)  =     2000
   RHO(2)=  100.500       N(2)  =     4000



--------------------------------------------------------------------------------------------------------


 ion  position               nearest neighbor table
   1  0.000  0.000  0.196-   5 1.57  10 1.57   4 1.59  14 1.59
   2  0.250  0.250  0.069-  21 1.05  22 1.05   9 1.48   4 1.55
   3  0.250  0.363  0.298-   8 1.38  15 1.51   5 1.51
   4  0.250  1.000  0.130-   7 1.55   2 1.55   1 1.59  11 1.59
   5  0.000  0.268  0.252-   3 1.51  13 1.51   1 1.57   6 1.58
   6  0.000  0.500  0.179-   9 1.52  19 1.52  10 1.58   5 1.58
   7  0.250  0.750  0.069-  23 1.05  24 1.05   9 1.48   4 1.55
   8  0.250  0.637  0.298-   3 1.38  20 1.51  10 1.51
   9  0.250  0.500  0.121-   2 1.48   7 1.48   6 1.52  16 1.52
  10  0.000  0.732  0.252-   8 1.51  18 1.51   1 1.57   6 1.58
  11  0.500  1.000  0.196-  20 1.57  15 1.57  14 1.59   4 1.59
  12  0.750  0.250  0.069-  25 1.05  26 1.05  19 1.48  14 1.55
  13  0.750  0.363  0.298-  18 1.38  15 1.51   5 1.51
  14  0.750  0.000  0.130-  12 1.55  17 1.55  11 1.59   1 1.59
  15  0.500  0.268  0.252-  13 1.51   3 1.51  11 1.57  16 1.58
  16  0.500  0.500  0.179-  19 1.52   9 1.52  20 1.58  15 1.58
  17  0.750  0.750  0.069-  27 1.05  28 1.05  19 1.48  14 1.55
  18  0.750  0.637  0.298-  13 1.38  20 1.51  10 1.51
  19  0.750  0.500  0.121-  17 1.48  12 1.48  16 1.52   6 1.52
  20  0.500  0.732  0.252-   8 1.51  18 1.51  11 1.57  16 1.58
  21  0.392  0.250  0.016-   2 1.05
  22  0.108  0.250  0.016-   2 1.05
  23  0.392  0.750  0.016-   7 1.05
  24  0.108  0.750  0.016-   7 1.05
  25  0.892  0.250  0.016-  12 1.05
  26  0.608  0.250  0.016-  12 1.05
  27  0.892  0.750  0.016-  17 1.05
  28  0.608  0.750  0.016-  17 1.05

  LATTYP: Found a simple tetragonal cell.
 ALAT       =     5.0526000000
 C/A-ratio  =     2.8841982346
  
  Lattice vectors:
  
 A1 = (   5.0526000000,   0.0000000000,   0.0000000000)
 A2 = (   0.0000000000,   5.0526000000,   0.0000000000)
 A3 = (   0.0000000000,   0.0000000000,  14.5727000000)


Analysis of symmetry for initial positions (statically):
=====================================================================
 Subroutine PRICEL returns:
 Original cell was already a primitive cell.
 

 Routine SETGRP: Setting up the symmetry group for a 
 simple tetragonal supercell.


 Subroutine GETGRP returns: Found  1 space group operations
 (whereof  1 operations were pure point group operations)
 out of a pool of 16 trial point group operations.


The static configuration has the point symmetry C_1 .


Analysis of symmetry for dynamics (positions and initial velocities):
=====================================================================
 Subroutine PRICEL returns:
 Original cell was already a primitive cell.
 

 Routine SETGRP: Setting up the symmetry group for a 
 simple tetragonal supercell.


 Subroutine GETGRP returns: Found  1 space group operations
 (whereof  1 operations were pure point group operations)
 out of a pool of 16 trial point group operations.


The dynamic configuration has the point symmetry C_1 .


Analysis of constrained symmetry for selective dynamics:
=====================================================================
 Subroutine PRICEL returns:
 Original cell was already a primitive cell.
 

 Routine SETGRP: Setting up the symmetry group for a 
 simple tetragonal supercell.


 Subroutine GETGRP returns: Found  1 space group operations
 (whereof  1 operations were pure point group operations)
 out of a pool of 16 trial point group operations.


The constrained configuration has the point symmetry C_1 .


 Subroutine INISYM returns: Found  1 space group operations
 (whereof  1 operations are pure point group operations),
 and found     1 'primitive' translations


----------------------------------------------------------------------------------------

                                     Primitive cell                                     

  volume of cell :     372.0231

  direct lattice vectors                    reciprocal lattice vectors
     5.052600000  0.000000000  0.000000000     0.197917904  0.000000000  0.000000000
     0.000000000  5.052600000  0.000000000     0.000000000  0.197917904  0.000000000
     0.000000000  0.000000000 14.572700000     0.000000000  0.000000000  0.068621463

  length of vectors
     5.052600000  5.052600000 14.572700000     0.197917904  0.197917904  0.068621463

  position of ions in fractional coordinates (direct lattice)
     0.000001834  0.000003077  0.196272093
     0.250000000  0.250000000  0.068620000
     0.250013436  0.363131426  0.298164024
     0.249992137  0.999997547  0.130287347
     0.000006012  0.267754604  0.251566589
     0.000005730  0.499996935  0.179147777
     0.250000000  0.750000000  0.068620000
     0.250009505  0.636876562  0.298162401
     0.250007918  0.499997632  0.121301657
     0.000001087  0.732239759  0.251564852
     0.500006517  0.999986289  0.196278891
     0.750000000  0.250000000  0.068620000
     0.749992921  0.363145616  0.298160997
     0.749987062  0.000004373  0.130284237
     0.500005580  0.267763834  0.251567600
     0.500012093  0.500010333  0.179152038
     0.750000000  0.750000000  0.068620000
     0.749997716  0.636876399  0.298166279
     0.749999433  0.500000641  0.121301252
     0.499999725  0.732250731  0.251564488
     0.392149340  0.250000000  0.016123816
     0.107850660  0.250000000  0.016123816
     0.392149340  0.750000000  0.016123816
     0.107850660  0.750000000  0.016123816
     0.892149340  0.250000000  0.016123816
     0.607850660  0.250000000  0.016123816
     0.892149340  0.750000000  0.016123816
     0.607850660  0.750000000  0.016123816

  ion indices of the primitive-cell ions
   primitive index   ion index
                 1           1
                 2           2
                 3           3
                 4           4
                 5           5
                 6           6
                 7           7
                 8           8
                 9           9
                10          10
                11          11
                12          12
                13          13
                14          14
                15          15
                16          16
                17          17
                18          18
                19          19
                20          20
                21          21
                22          22
                23          23
                24          24
                25          25
                26          26
                27          27
                28          28

----------------------------------------------------------------------------------------



 KPOINTS: C fcc         # System label            

Automatic generation of k-mesh.
 Grid dimensions read from file:
 generate k-points for:    3    3    1

 Generating k-lattice:

  Cartesian coordinates                     Fractional coordinates (reciprocal lattice)
     0.065972635  0.000000000  0.000000000     0.333333333  0.000000000  0.000000000
     0.000000000  0.065972635  0.000000000     0.000000000  0.333333333  0.000000000
     0.000000000  0.000000000  0.068621463     0.000000000  0.000000000  1.000000000

  Length of vectors
     0.065972635  0.065972635  0.068621463

  Shift w.r.t. Gamma in fractional coordinates (k-lattice)
     0.000000000  0.000000000  0.000000000

 
 Subroutine IBZKPT returns following result:
 ===========================================
 
 Found      5 irreducible k-points:
 
 Following reciprocal coordinates:
            Coordinates               Weight
  0.000000  0.000000  0.000000      1.000000
  0.333333  0.000000  0.000000      2.000000
  0.000000  0.333333  0.000000      2.000000
  0.333333  0.333333  0.000000      2.000000
 -0.333333  0.333333  0.000000      2.000000
 
 Following cartesian coordinates:
            Coordinates               Weight
  0.000000  0.000000  0.000000      1.000000
  0.065973  0.000000  0.000000      2.000000
  0.000000  0.065973  0.000000      2.000000
  0.065973  0.065973  0.000000      2.000000
 -0.065973  0.065973  0.000000      2.000000
 


--------------------------------------------------------------------------------------------------------




 Dimension of arrays:
   k-points           NKPTS =      5   k-points in BZ     NKDIM =      5   number of bands    NBANDS=     64
   number of dos      NEDOS =    301   number of ions     NIONS =     28
   non local maximal  LDIM  =      4   non local SUM 2l+1 LMDIM =      8
   total plane-waves  NPLWV = 139968
   max r-space proj   IRMAX =   1277   max aug-charges    IRDMAX=  35714
   dimension x,y,z NGX =    36 NGY =   36 NGZ =  108
   dimension x,y,z NGXF=    72 NGYF=   72 NGZF=  216
   support grid    NGXF=   144 NGYF=  144 NGZF=  432
   ions per type =              20   8
   NGX,Y,Z   is equivalent  to a cutoff of  11.85, 11.85, 12.32 a.u.
   NGXF,Y,Z  is equivalent  to a cutoff of  23.69, 23.69, 24.64 a.u.

 SYSTEM =  carbon 100                              
 POSCAR =   C                                      

 Startparameter for this run:
   NWRITE =      2    write-flag & timer
   PREC   = normal    normal or accurate (medium, high low for compatibility)
   ISTART =      0    job   : 0-new  1-cont  2-samecut
   ICHARG =      2    charge: 1-file 2-atom 10-const
   ISPIN  =      1    spin polarized calculation?
   LNONCOLLINEAR =      F non collinear calculations
   LSORBIT =      F    spin-orbit coupling
   INIWAV =      1    electr: 0-lowe 1-rand  2-diag
   LASPH  =      F    aspherical Exc in radial PAW
 Electronic Relaxation 1
   ENCUT  =  800.0 eV  58.80 Ry    7.67 a.u.  11.65 11.65 33.61*2*pi/ulx,y,z
   ENINI  =  800.0     initial cutoff
   ENAUG  =  644.9 eV  augmentation charge cutoff
   NELM   =     60;   NELMIN=  2; NELMDL= -5     # of ELM steps 
   EDIFF  = 0.1E-03   stopping-criterion for ELM
   LREAL  =      T    real-space projection
   NLSPLINE    = F    spline interpolate recip. space projectors
   LCOMPAT=      F    compatible to vasp.4.4
   GGA_COMPAT  = T    GGA compatible to vasp.4.4-vasp.4.6
   LMAXPAW     = -100 max onsite density
   LMAXMIX     =    2 max onsite mixed and CHGCAR
   VOSKOWN=      0    Vosko Wilk Nusair interpolation
   ROPT   =   -0.00050  -0.00050
 Ionic relaxation
   EDIFFG = -.3E-01   stopping-criterion for IOM
   NSW    =     30    number of steps for IOM
   NBLOCK =      1;   KBLOCK =     30    inner block; outer block 
   IBRION =      1    ionic relax: 0-MD 1-quasi-New 2-CG
   NFREE  =      0    steps in history (QN), initial steepest desc. (CG)
   ISIF   =      2    stress and relaxation
   IWAVPR =     11    prediction:  0-non 1-charg 2-wave 3-comb
   ISYM   =      2    0-nonsym 1-usesym 2-fastsym
   LCORR  =      T    Harris-Foulkes like correction to forces

   POTIM  = 0.5000    time-step for ionic-motion
   TEIN   =    0.0    initial temperature
   TEBEG  =    0.0;   TEEND  =   0.0 temperature during run
   SMASS  =  -3.00    Nose mass-parameter (am)
   estimated Nose-frequenzy (Omega)   =  0.10E-29 period in steps = 0.13E+47 mass=  -0.583E-27a.u.
   SCALEE = 1.0000    scale energy and forces
   NPACO  =    256;   APACO  = 10.0  distance and # of slots for P.C.
   PSTRESS=    0.0 pullay stress

  Mass of Ions in am
   POMASS =  12.01  1.00
  Ionic Valenz
   ZVAL   =   4.00  1.00
  Atomic Wigner-Seitz radii
   RWIGS  =  -1.00 -1.00
  virtual crystal weights 
   VCA    =   1.00  1.00
   NELECT =      88.0000    total number of electrons
   NUPDOWN=      -1.0000    fix difference up-down

 DOS related values:
   EMIN   =  10.00;   EMAX   =-10.00  energy-range for DOS
   EFERMI =   0.00;   METHOD = LEGACY      
   ISMEAR =     1;   SIGMA  =   0.20  broadening in eV -4-tet -1-fermi 0-gaus

 Electronic relaxation 2 (details)
   IALGO  =     68    algorithm
   LDIAG  =      T    sub-space diagonalisation (order eigenvalues)
   LSUBROT=      F    optimize rotation matrix (better conditioning)
   TURBO    =      0    0=normal 1=particle mesh
   IRESTART =      0    0=no restart 2=restart with 2 vectors
   NREBOOT  =      0    no. of reboots
   NMIN     =      0    reboot dimension
   EREF     =   0.00    reference energy to select bands
   IMIX   =      4    mixing-type and parameters
     AMIX     =   0.40;   BMIX     =  1.00
     AMIX_MAG =   1.60;   BMIX_MAG =  1.00
     AMIN     =   0.10
     WC   =   100.;   INIMIX=   1;  MIXPRE=   1;  MAXMIX= -45

 Intra band minimization:
   WEIMIN = 0.0010     energy-eigenvalue tresh-hold
   EBREAK =  0.39E-06  absolut break condition
   DEPER  =   0.30     relativ break condition  

   TIME   =   0.40     timestep for ELM

  volume/ion in A,a.u.               =      13.29        89.66
  Fermi-wavevector in a.u.,A,eV,Ry     =   1.012463  1.913277 13.947074  1.025081
  Thomas-Fermi vector in A             =   2.145574

 Write flags
   LWAVE        =      T    write WAVECAR
   LDOWNSAMPLE  =      F    k-point downsampling of WAVECAR
   LCHARG       =      F    write CHGCAR
   LVTOT        =      F    write LOCPOT, total local potential
   LVHAR        =      F    write LOCPOT, Hartree potential only
   LELF         =      F    write electronic localiz. function (ELF)
   LORBIT       =      0    0 simple, 1 ext, 2 COOP (PROOUT), +10 PAW based schemes


 Dipole corrections
   LMONO  =      F    monopole corrections only (constant potential shift)
   LDIPOL =      T    correct potential (dipole corrections)
   IDIPOL =      3    1-x, 2-y, 3-z, 4-all directions 
   EPSILON=  1.0000000 bulk dielectric constant

 Exchange correlation treatment:
   GGA     =    --    GGA type
   LEXCH   =     8    internal setting for exchange type
   LIBXC   =     F    Libxc                    
   VOSKOWN =     0    Vosko Wilk Nusair interpolation
   LHFCALC =     F    Hartree Fock is set to
   LHFONE  =     F    Hartree Fock one center treatment
   AEXX    =    0.0000 exact exchange contribution

 Linear response parameters
   LEPSILON=     F    determine dielectric tensor
   LRPA    =     F    only Hartree local field effects (RPA)
   LNABLA  =     F    use nabla operator in PAW spheres
   LVEL    =     F    velocity operator in full k-point grid
   CSHIFT  =0.1000    complex shift for real part using Kramers Kronig
   OMEGAMAX=  -1.0    maximum frequency
   DEG_THRESHOLD= 0.2000000E-02 threshold for treating states as degnerate
   RTIME   =   -0.100 relaxation time in fs
  (WPLASMAI=    0.000 imaginary part of plasma frequency in eV, 0.658/RTIME)
   DFIELD  = 0.0000000 0.0000000 0.0000000 field for delta impulse in time

  Optional k-point grid parameters
   LKPOINTS_OPT  =     F    use optional k-point grid
   KPOINTS_OPT_MODE=     1    mode for optional k-point grid

 Orbital magnetization related:
   ORBITALMAG=     F  switch on orbital magnetization
   LCHIMAG   =     F  perturbation theory with respect to B field
   DQ        =  0.001000  dq finite difference perturbation B field
   LLRAUG    =     F  two centre corrections for induced B field
   LBONE     =     F  B-component reconstruction in AE one-centre
   LVGVCALC  =     T  calculate vGv susceptibility
   LVGVAPPL  =     F  apply vGv susceptibility instead of pGv for G=0

 Random number generation:
   RANDOM_GENERATOR = DEFAULT
   PCG_SEED         = not used


--------------------------------------------------------------------------------------------------------


 quasi-Newton-method for relaxation of ions
   using selective dynamics as specified on POSCAR
 charge density and potential will be updated during run
 non-spin polarized calculation
 RMM-DIIS sequential band-by-band and
  variant of blocked Davidson during initial phase
 perform sub-space diagonalisation
    before iterative eigenvector-optimisation
 modified Broyden-mixing scheme, WC =      100.0
 initial mixing is a Kerker type mixing with AMIX =  0.4000 and BMIX =      1.0000
 Hartree-type preconditioning will be used
 using additional bands           20
 real space projection scheme for non local part
 use partial core corrections
 calculate Harris-corrections to forces   (improved forces if not selfconsistent)
 use gradient corrections 
 use of overlap-Matrix (Vanderbilt PP)
 Methfessel and Paxton  Order N= 1 SIGMA  =   0.20


--------------------------------------------------------------------------------------------------------


  energy-cutoff  :      800.00
  volume of cell :      372.02
      direct lattice vectors                 reciprocal lattice vectors
     5.052600000  0.000000000  0.000000000     0.197917904  0.000000000  0.000000000
     0.000000000  5.052600000  0.000000000     0.000000000  0.197917904  0.000000000
     0.000000000  0.000000000 14.572700000     0.000000000  0.000000000  0.068621463

  length of vectors
     5.052600000  5.052600000 14.572700000     0.197917904  0.197917904  0.068621463



 k-points in units of 2pi/SCALE and weight: C fcc         # System label            
   0.00000000  0.00000000  0.00000000       0.111
   0.06597263  0.00000000  0.00000000       0.222
   0.00000000  0.06597263  0.00000000       0.222
   0.06597263  0.06597263  0.00000000       0.222
  -0.06597263  0.06597263  0.00000000       0.222

 k-points in reciprocal lattice and weights: C fcc         # System label            
   0.00000000  0.00000000  0.00000000       0.111
   0.33333333  0.00000000  0.00000000       0.222
   0.00000000  0.33333333  0.00000000       0.222
   0.33333333  0.33333333  0.00000000       0.222
  -0.33333333  0.33333333  0.00000000       0.222

 position of ions in fractional coordinates (direct lattice) 
   0.00000183  0.00000308  0.19627209
   0.25000000  0.25000000  0.06862000
   0.25001344  0.36313143  0.29816402
   0.24999214  0.99999755  0.13028735
   0.00000601  0.26775460  0.25156659
   0.00000573  0.49999694  0.17914778
   0.25000000  0.75000000  0.06862000
   0.25000951  0.63687656  0.29816240
   0.25000792  0.49999763  0.12130166
   0.00000109  0.73223976  0.25156485
   0.50000652  0.99998629  0.19627889
   0.75000000  0.25000000  0.06862000
   0.74999292  0.36314562  0.29816100
   0.74998706  0.00000437  0.13028424
   0.50000558  0.26776383  0.25156760
   0.50001209  0.50001033  0.17915204
   0.75000000  0.75000000  0.06862000
   0.74999772  0.63687640  0.29816628
   0.74999943  0.50000064  0.12130125
   0.49999972  0.73225073  0.25156449
   0.39214934  0.25000000  0.01612382
   0.10785066  0.25000000  0.01612382
   0.39214934  0.75000000  0.01612382
   0.10785066  0.75000000  0.01612382
   0.89214934  0.25000000  0.01612382
   0.60785066  0.25000000  0.01612382
   0.89214934  0.75000000  0.01612382
   0.60785066  0.75000000  0.01612382

 position of ions in cartesian coordinates  (Angst):
   0.00000926  0.00001555  2.86021433
   1.26315000  1.26315000  0.99997867
   1.26321789  1.83475784  4.34505488
   1.26311027  5.05258761  1.89863842
   0.00003038  1.35285691  3.66600443
   0.00002895  2.52628452  2.61066680
   1.26315000  3.78945000  0.99997867
   1.26319803  3.21788252  4.34503123
   1.26319000  2.52628804  1.76769265
   0.00000549  3.69971461  3.66597912
   2.52633293  5.05253072  2.86031339
   3.78945000  1.26315000  0.99997867
   3.78941423  1.83482954  4.34501077
   3.78938463  0.00002209  1.89859311
   2.52632819  1.35290355  3.66601917
   2.52636110  2.52635221  2.61072891
   3.78945000  3.78945000  0.99997867
   3.78943846  3.21788169  4.34508773
   3.78944713  2.52630324  1.76768675
   2.52629861  3.69977004  3.66597381
   1.98137376  1.26315000  0.23496753
   0.54492624  1.26315000  0.23496753
   1.98137376  3.78945000  0.23496753
   0.54492624  3.78945000  0.23496753
   4.50767376  1.26315000  0.23496753
   3.07122624  1.26315000  0.23496753
   4.50767376  3.78945000  0.23496753
   3.07122624  3.78945000  0.23496753



--------------------------------------------------------------------------------------------------------


 k-point   1 :   0.0000 0.0000 0.0000  plane waves:   19103
 k-point   2 :   0.3333 0.0000 0.0000  plane waves:   19125
 k-point   3 :   0.0000 0.3333 0.0000  plane waves:   19125
 k-point   4 :   0.3333 0.3333 0.0000  plane waves:   19098
 k-point   5 :  -0.3333 0.3333 0.0000  plane waves:   19098

 maximum and minimum number of plane-waves per node :     19125    19098

 maximum number of plane-waves:     19125
 maximum index in each direction: 
   IXMAX=   11   IYMAX=   11   IZMAX=   33
   IXMIN=  -11   IYMIN=  -11   IZMIN=  -33


 serial   3D FFT for wavefunctions
 parallel 3D FFT for charge:
    minimum data exchange during FFTs selected (reduces bandwidth)


 total amount of memory used by VASP MPI-rank0    79568. kBytes
=======================================================================

   base      :      30000. kBytes
   nonlr-proj:       2541. kBytes
   fftplans  :      21063. kBytes
   grid      :      13509. kBytes
   one-center:         86. kBytes
   wavefun   :      12369. kBytes

     INWAV:  cpu time      0.0000: real time      0.0000
 Broyden mixing: mesh for mixing (old mesh)
   NGX = 23   NGY = 23   NGZ = 67
  (NGX  = 72   NGY  = 72   NGZ  =216)
  gives a total of  35443 points

 initial charge density was supplied:
 charge density of overlapping atoms calculated
 number of electron      88.0000000 magnetization 
 keeping initial charge density in first step


--------------------------------------------------------------------------------------------------------


 Maximum index for non-local projection operator         1196
 Maximum index for augmentation-charges         4403 (set IRDMAX)


--------------------------------------------------------------------------------------------------------


 First call to EWALD:  gamma=   0.246
 Maximum number of real-space cells 4x 4x 2
 Maximum number of reciprocal cells 2x 2x 5

    FEWALD:  cpu time      0.0015: real time      0.0015


--------------------------------------- Ionic step        1  -------------------------------------------




--------------------------------------- Iteration      1(   1)  ---------------------------------------


    POTLOK:  cpu time      0.1030: real time      0.1031
    SETDIJ:  cpu time      0.1084: real time      0.1084
     EDDAV:  cpu time      2.4244: real time      2.4245
       DOS:  cpu time      0.0003: real time      0.0003
    --------------------------------------------
      LOOP:  cpu time      2.6361: real time      2.6363

 eigenvalue-minimisations  :   640
 total energy-change (2. order) : 0.7031009E+03  (-0.5003673E+04)
 number of electron      88.0000000 magnetization 
 augmentation part       88.0000000 magnetization 

 DIPCOR: dipole corrections for dipol
 direction  3 min pos   145,
 dipolmoment           0.000000      0.000000      0.000146 electrons x Angstroem
 Tr[quadrupol]      -403.592324

 energy correction for charged system         0.000000 eV
 dipol+quadrupol energy correction           -0.000000 eV
 added-field ion interaction         -0.000386 eV  (added to PSCEN)


 Free energy of the ion-electron system (eV)
  ---------------------------------------------------
  alpha Z        PSCENC =       101.76646970
  Ewald energy   TEWEN  =     11886.79234063
  -Hartree energ DENC   =    -14458.12023460
  -exchange      EXHF   =         0.00000000
  -V(xc)+E(xc)   XCENC  =       292.48736458
  PAW double counting   =      2187.51314709    -2198.97228554
  entropy T*S    EENTRO =        -0.00659492
  eigenvalues    EBANDS =      -151.35316420
  atomic energy  EATOM  =      3042.99389965
  Solvation  Ediel_sol  =         0.00000000
  ---------------------------------------------------
  free energy    TOTEN  =       703.10094239 eV

  energy without entropy =      703.10753731  energy(sigma->0) =      703.10314069


--------------------------------------------------------------------------------------------------------




--------------------------------------- Iteration      1(   2)  ---------------------------------------


     EDDAV:  cpu time      3.1341: real time      3.1343
       DOS:  cpu time      0.0003: real time      0.0003
    --------------------------------------------
      LOOP:  cpu time      3.1343: real time      3.1346

 eigenvalue-minimisations  :   896
 total energy-change (2. order) :-0.8228724E+03  (-0.7751930E+03)
 number of electron      88.0000000 magnetization 
 augmentation part       88.0000000 magnetization 

 DIPCOR: dipole corrections for dipol
 direction  3 min pos   145,
 dipolmoment           0.000000      0.000000      0.000146 electrons x Angstroem
 Tr[quadrupol]      -403.592324

 energy correction for charged system         0.000000 eV
 dipol+quadrupol energy correction           -0.000000 eV
 added-field ion interaction         -0.000386 eV  (added to PSCEN)


 Free energy of the ion-electron system (eV)
  ---------------------------------------------------
  alpha Z        PSCENC =       101.76646970
  Ewald energy   TEWEN  =     11886.79234063
  -Hartree energ DENC   =    -14458.12023460
  -exchange      EXHF   =         0.00000000
  -V(xc)+E(xc)   XCENC  =       292.48736458
  PAW double counting   =      2187.51314709    -2198.97228554
  entropy T*S    EENTRO =         0.00815720
  eigenvalues    EBANDS =      -974.24036512
  atomic energy  EATOM  =      3042.99389965
  Solvation  Ediel_sol  =         0.00000000
  ---------------------------------------------------
  free energy    TOTEN  =      -119.77150641 eV

  energy without entropy =     -119.77966361  energy(sigma->0) =     -119.77422548


--------------------------------------------------------------------------------------------------------




--------------------------------------- Iteration      1(   3)  ---------------------------------------


     EDDAV:  cpu time      2.8217: real time      2.8219
       DOS:  cpu time      0.0003: real time      0.0003
    --------------------------------------------
      LOOP:  cpu time      2.8220: real time      2.8222

 eigenvalue-minimisations  :   784
 total energy-change (2. order) :-0.8767751E+02  (-0.8672748E+02)
 number of electron      88.0000000 magnetization 
 augmentation part       88.0000000 magnetization 

 DIPCOR: dipole corrections for dipol
 direction  3 min pos   145,
 dipolmoment           0.000000      0.000000      0.000146 electrons x Angstroem
 Tr[quadrupol]      -403.592324

 energy correction for charged system         0.000000 eV
 dipol+quadrupol energy correction           -0.000000 eV
 added-field ion interaction         -0.000386 eV  (added to PSCEN)


 Free energy of the ion-electron system (eV)
  ---------------------------------------------------
  alpha Z        PSCENC =       101.76646970
  Ewald energy   TEWEN  =     11886.79234063
  -Hartree energ DENC   =    -14458.12023460
  -exchange      EXHF   =         0.00000000
  -V(xc)+E(xc)   XCENC  =       292.48736458
  PAW double counting   =      2187.51314709    -2198.97228554
  entropy T*S    EENTRO =         0.00940004
  eigenvalues    EBANDS =     -1061.91911507
  atomic energy  EATOM  =      3042.99389965
  Solvation  Ediel_sol  =         0.00000000
  ---------------------------------------------------
  free energy    TOTEN  =      -207.44901352 eV

  energy without entropy =     -207.45841356  energy(sigma->0) =     -207.45214687


--------------------------------------------------------------------------------------------------------




--------------------------------------- Iteration      1(   4)  ---------------------------------------


     EDDAV:  cpu time      3.0952: real time      3.0954
       DOS:  cpu time      0.0003: real time      0.0003
    --------------------------------------------
      LOOP:  cpu time      3.0955: real time      3.0956

 eigenvalue-minimisations  :   880
 total energy-change (2. order) :-0.2493998E+01  (-0.2485939E+01)
 number of electron      88.0000000 magnetization 
 augmentation part       88.0000000 magnetization 

 DIPCOR: dipole corrections for dipol
 direction  3 min pos   145,
 dipolmoment           0.000000      0.000000      0.000146 electrons x Angstroem
 Tr[quadrupol]      -403.592324

 energy correction for charged system         0.000000 eV
 dipol+quadrupol energy correction           -0.000000 eV
 added-field ion interaction         -0.000386 eV  (added to PSCEN)


 Free energy of the ion-electron system (eV)
  ---------------------------------------------------
  alpha Z        PSCENC =       101.76646970
  Ewald energy   TEWEN  =     11886.79234063
  -Hartree energ DENC   =    -14458.12023460
  -exchange      EXHF   =         0.00000000
  -V(xc)+E(xc)   XCENC  =       292.48736458
  PAW double counting   =      2187.51314709    -2198.97228554
  entropy T*S    EENTRO =         0.00934806
  eigenvalues    EBANDS =     -1064.41306060
  atomic energy  EATOM  =      3042.99389965
  Solvation  Ediel_sol  =         0.00000000
  ---------------------------------------------------
  free energy    TOTEN  =      -209.94301103 eV

  energy without entropy =     -209.95235909  energy(sigma->0) =     -209.94612705


--------------------------------------------------------------------------------------------------------




--------------------------------------- Iteration      1(   5)  ---------------------------------------


     EDDAV:  cpu time      3.2520: real time      3.2521
       DOS:  cpu time      0.0004: real time      0.0004
    CHARGE:  cpu time      0.2224: real time      0.2224
    MIXING:  cpu time      0.0054: real time      0.0054
    --------------------------------------------
      LOOP:  cpu time      3.4801: real time      3.4803

 eigenvalue-minimisations  :   912
 total energy-change (2. order) :-0.7411457E-01  (-0.7405378E-01)
 number of electron      88.0000000 magnetization 
 augmentation part        2.2744248 magnetization 

 DIPCOR: dipole corrections for dipol
 direction  3 min pos   145,
 dipolmoment           0.000000      0.000000      0.000146 electrons x Angstroem
 Tr[quadrupol]      -403.592324

 energy correction for charged system         0.000000 eV
 dipol+quadrupol energy correction           -0.000000 eV
 added-field ion interaction         -0.000386 eV  (added to PSCEN)


 Broyden mixing:
  rms(total) = 0.21652E+01    rms(broyden)= 0.21652E+01
  rms(prec ) = 0.24781E+01
  weight for this iteration     100.00

 Free energy of the ion-electron system (eV)
  ---------------------------------------------------
  alpha Z        PSCENC =       101.76646970
  Ewald energy   TEWEN  =     11886.79234063
  -Hartree energ DENC   =    -14458.12023460
  -exchange      EXHF   =         0.00000000
  -V(xc)+E(xc)   XCENC  =       292.48736458
  PAW double counting   =      2187.51314709    -2198.97228554
  entropy T*S    EENTRO =         0.00934472
  eigenvalues    EBANDS =     -1064.48717183
  atomic energy  EATOM  =      3042.99389965
  Solvation  Ediel_sol  =         0.00000000
  ---------------------------------------------------
  free energy    TOTEN  =      -210.01712560 eV

  energy without entropy =     -210.02647032  energy(sigma->0) =     -210.02024051


--------------------------------------------------------------------------------------------------------




--------------------------------------- Iteration      1(   6)  ---------------------------------------


    POTLOK:  cpu time      0.0993: real time      0.0993
    SETDIJ:  cpu time      0.1089: real time      0.1089
    EDDIAG:  cpu time      0.5141: real time      0.5142
  RMM-DIIS:  cpu time      1.9914: real time      1.9914
    ORTHCH:  cpu time      0.0445: real time      0.0445
       DOS:  cpu time      0.0004: real time      0.0004
    CHARGE:  cpu time      0.2208: real time      0.2208
    MIXING:  cpu time      0.0089: real time      0.0089
    --------------------------------------------
      LOOP:  cpu time      2.9883: real time      2.9884

 eigenvalue-minimisations  :   642
 total energy-change (2. order) : 0.1108266E+02  (-0.1115140E+01)
 number of electron      88.0000000 magnetization 
 augmentation part        2.2041424 magnetization 

 DIPCOR: dipole corrections for dipol
 direction  3 min pos   143,
 dipolmoment           0.000000      0.000000      0.044340 electrons x Angstroem
 Tr[quadrupol]      -404.560364

 energy correction for charged system         0.000000 eV
 dipol+quadrupol energy correction           -0.000478 eV
 added-field ion interaction         -0.373012 eV  (added to PSCEN)


 Broyden mixing:
  rms(total) = 0.12110E+01    rms(broyden)= 0.12110E+01
  rms(prec ) = 0.13667E+01
  weight for this iteration     100.00

 eigenvalues of (default mixing * dielectric matrix)
  average eigenvalue GAMMA=   2.0147
  2.0147

 Free energy of the ion-electron system (eV)
  ---------------------------------------------------
  alpha Z        PSCENC =       101.39336579
  Ewald energy   TEWEN  =     11886.79234063
  -Hartree energ DENC   =    -14574.35589621
  -exchange      EXHF   =         0.00000000
  -V(xc)+E(xc)   XCENC  =       297.55383253
  PAW double counting   =      3919.95920603    -3932.90978944
  entropy T*S    EENTRO =         0.01444583
  eigenvalues    EBANDS =      -940.37586953
  atomic energy  EATOM  =      3042.99389965
  Solvation  Ediel_sol  =         0.00000000
  ---------------------------------------------------
  free energy    TOTEN  =      -198.93446472 eV

  energy without entropy =     -198.94891055  energy(sigma->0) =     -198.93927999


--------------------------------------------------------------------------------------------------------




--------------------------------------- Iteration      1(   7)  ---------------------------------------


    POTLOK:  cpu time      0.0992: real time      0.0992
    SETDIJ:  cpu time      0.1068: real time      0.1069
    EDDIAG:  cpu time      0.5293: real time      0.5294
  RMM-DIIS:  cpu time      1.9933: real time      1.9933
    ORTHCH:  cpu time      0.0453: real time      0.0453
       DOS:  cpu time      0.0004: real time      0.0004
    CHARGE:  cpu time      0.2207: real time      0.2208
    MIXING:  cpu time      0.0089: real time      0.0089
    --------------------------------------------
      LOOP:  cpu time      3.0040: real time      3.0041

 eigenvalue-minimisations  :   642
 total energy-change (2. order) : 0.3217742E+01  (-0.1266692E+01)
 number of electron      88.0000000 magnetization 
 augmentation part        2.1089022 magnetization 

 DIPCOR: dipole corrections for dipol
 direction  3 min pos   143,
 dipolmoment           0.000000      0.000000      0.148918 electrons x Angstroem
 Tr[quadrupol]      -406.041416

 energy correction for charged system         0.000000 eV
 dipol+quadrupol energy correction           -0.005394 eV
 added-field ion interaction         -1.252780 eV  (added to PSCEN)


 Broyden mixing:
  rms(total) = 0.40053E+00    rms(broyden)= 0.40053E+00
  rms(prec ) = 0.44407E+00
  weight for this iteration     100.00

 eigenvalues of (default mixing * dielectric matrix)
  average eigenvalue GAMMA=   2.1890
  2.1890  2.1890

 Free energy of the ion-electron system (eV)
  ---------------------------------------------------
  alpha Z        PSCENC =       100.50868172
  Ewald energy   TEWEN  =     11886.79234063
  -Hartree energ DENC   =    -14716.58912453
  -exchange      EXHF   =         0.00000000
  -V(xc)+E(xc)   XCENC  =       303.76076200
  PAW double counting   =      6783.21282237    -6797.46224834
  entropy T*S    EENTRO =         0.00799436
  eigenvalues    EBANDS =      -798.94185071
  atomic energy  EATOM  =      3042.99389965
  Solvation  Ediel_sol  =         0.00000000
  ---------------------------------------------------
  free energy    TOTEN  =      -195.71672283 eV

  energy without entropy =     -195.72471720  energy(sigma->0) =     -195.71938762


--------------------------------------------------------------------------------------------------------




--------------------------------------- Iteration      1(   8)  ---------------------------------------


    POTLOK:  cpu time      0.0979: real time      0.0979
    SETDIJ:  cpu time      0.1071: real time      0.1071
    EDDIAG:  cpu time      0.5176: real time      0.5177
  RMM-DIIS:  cpu time      2.0361: real time      2.0362
    ORTHCH:  cpu time      0.0466: real time      0.0466
       DOS:  cpu time      0.0006: real time      0.0007
    CHARGE:  cpu time      0.2202: real time      0.2202
    MIXING:  cpu time      0.0074: real time      0.0074
    --------------------------------------------
      LOOP:  cpu time      3.0335: real time      3.0336

 eigenvalue-minimisations  :   648
 total energy-change (2. order) : 0.2259599E+00  (-0.1285595E+00)
 number of electron      88.0000000 magnetization 
 augmentation part        2.1037380 magnetization 

 DIPCOR: dipole corrections for dipol
 direction  3 min pos   143,
 dipolmoment           0.000000      0.000000      0.282426 electrons x Angstroem
 Tr[quadrupol]      -406.982111

 energy correction for charged system         0.000000 eV
 dipol+quadrupol energy correction           -0.019400 eV
 added-field ion interaction         -2.375921 eV  (added to PSCEN)


 Broyden mixing:
  rms(total) = 0.95149E-01    rms(broyden)= 0.95148E-01
  rms(prec ) = 0.14025E+00
  weight for this iteration     100.00

 eigenvalues of (default mixing * dielectric matrix)
  average eigenvalue GAMMA=   1.8789
  2.6020  1.5174  1.5174

 Free energy of the ion-electron system (eV)
  ---------------------------------------------------
  alpha Z        PSCENC =        99.37153442
  Ewald energy   TEWEN  =     11886.79234063
  -Hartree energ DENC   =    -14743.73562092
  -exchange      EXHF   =         0.00000000
  -V(xc)+E(xc)   XCENC  =       304.27751159
  PAW double counting   =      7795.60397817    -7809.42697487
  entropy T*S    EENTRO =         0.01311150
  eigenvalues    EBANDS =      -771.38054308
  atomic energy  EATOM  =      3042.99389965
  Solvation  Ediel_sol  =         0.00000000
  ---------------------------------------------------
  free energy    TOTEN  =      -195.49076291 eV

  energy without entropy =     -195.50387441  energy(sigma->0) =     -195.49513341


--------------------------------------------------------------------------------------------------------




--------------------------------------- Iteration      1(   9)  ---------------------------------------


    POTLOK:  cpu time      0.0987: real time      0.0987
    SETDIJ:  cpu time      0.1079: real time      0.1079
    EDDIAG:  cpu time      0.5264: real time      0.5266
  RMM-DIIS:  cpu time      2.0389: real time      2.0390
    ORTHCH:  cpu time      0.0501: real time      0.0501
       DOS:  cpu time      0.0005: real time      0.0005
    CHARGE:  cpu time      0.2241: real time      0.2241
    MIXING:  cpu time      0.0085: real time      0.0085
    --------------------------------------------
      LOOP:  cpu time      3.0551: real time      3.0554

 eigenvalue-minimisations  :   659
 total energy-change (2. order) : 0.5936300E-01  (-0.2796180E-01)
 number of electron      88.0000000 magnetization 
 augmentation part        2.0939048 magnetization 

 DIPCOR: dipole corrections for dipol
 direction  3 min pos   142,
 dipolmoment           0.000000      0.000000      0.307410 electrons x Angstroem
 Tr[quadrupol]      -407.391033

 energy correction for charged system         0.000000 eV
 dipol+quadrupol energy correction           -0.022984 eV
 added-field ion interaction         -3.473838 eV  (added to PSCEN)


 Broyden mixing:
  rms(total) = 0.51714E-01    rms(broyden)= 0.51713E-01
  rms(prec ) = 0.81580E-01
  weight for this iteration     100.00

 eigenvalues of (default mixing * dielectric matrix)
  average eigenvalue GAMMA=   1.7902
  2.5642  1.8871  1.8871  0.8223

 Free energy of the ion-electron system (eV)
  ---------------------------------------------------
  alpha Z        PSCENC =        98.27003381
  Ewald energy   TEWEN  =     11886.79234063
  -Hartree energ DENC   =    -14762.88575386
  -exchange      EXHF   =         0.00000000
  -V(xc)+E(xc)   XCENC  =       304.80775091
  PAW double counting   =      8010.36825623    -8024.26336727
  entropy T*S    EENTRO =         0.01280970
  eigenvalues    EBANDS =      -751.52736970
  atomic energy  EATOM  =      3042.99389965
  Solvation  Ediel_sol  =         0.00000000
  ---------------------------------------------------
  free energy    TOTEN  =      -195.43139990 eV

  energy without entropy =     -195.44420960  energy(sigma->0) =     -195.43566980


--------------------------------------------------------------------------------------------------------




--------------------------------------- Iteration      1(  10)  ---------------------------------------


    POTLOK:  cpu time      0.0969: real time      0.0969
    SETDIJ:  cpu time      0.1099: real time      0.1099
    EDDIAG:  cpu time      0.5221: real time      0.5222
  RMM-DIIS:  cpu time      2.0780: real time      2.0781
    ORTHCH:  cpu time      0.0448: real time      0.0448
       DOS:  cpu time      0.0003: real time      0.0003
    CHARGE:  cpu time      0.2263: real time      0.2263
    MIXING:  cpu time      0.0054: real time      0.0054
    --------------------------------------------
      LOOP:  cpu time      3.0838: real time      3.0839

 eigenvalue-minimisations  :   674
 total energy-change (2. order) : 0.2050857E-01  (-0.9578329E-02)
 number of electron      88.0000000 magnetization 
 augmentation part        2.0905873 magnetization 

 DIPCOR: dipole corrections for dipol
 direction  3 min pos   139,
 dipolmoment           0.000000      0.000000      0.358134 electrons x Angstroem
 Tr[quadrupol]      -407.953254

 energy correction for charged system         0.000000 eV
 dipol+quadrupol energy correction           -0.031194 eV
 added-field ion interaction         -7.149694 eV  (added to PSCEN)


 Broyden mixing:
  rms(total) = 0.29713E-01    rms(broyden)= 0.29713E-01
  rms(prec ) = 0.51503E-01
  weight for this iteration     100.00

 eigenvalues of (default mixing * dielectric matrix)
  average eigenvalue GAMMA=   1.7267
  2.7249  2.3844  1.2924  1.2924  0.9396

 Free energy of the ion-electron system (eV)
  ---------------------------------------------------
  alpha Z        PSCENC =        94.58596686
  Ewald energy   TEWEN  =     11886.79234063
  -Hartree energ DENC   =    -14776.88397377
  -exchange      EXHF   =         0.00000000
  -V(xc)+E(xc)   XCENC  =       304.77563252
  PAW double counting   =      8019.65346954    -8033.43113520
  entropy T*S    EENTRO =         0.01284149
  eigenvalues    EBANDS =      -733.90993305
  atomic energy  EATOM  =      3042.99389965
  Solvation  Ediel_sol  =         0.00000000
  ---------------------------------------------------
  free energy    TOTEN  =      -195.41089133 eV

  energy without entropy =     -195.42373282  energy(sigma->0) =     -195.41517183


--------------------------------------------------------------------------------------------------------




--------------------------------------- Iteration      1(  11)  ---------------------------------------


    POTLOK:  cpu time      0.0979: real time      0.0978
    SETDIJ:  cpu time      0.1069: real time      0.1069
    EDDIAG:  cpu time      0.5184: real time      0.5184
  RMM-DIIS:  cpu time      2.0025: real time      2.0026
    ORTHCH:  cpu time      0.0452: real time      0.0452
       DOS:  cpu time      0.0004: real time      0.0004
    CHARGE:  cpu time      0.2233: real time      0.2233
    MIXING:  cpu time      0.0091: real time      0.0091
    --------------------------------------------
      LOOP:  cpu time      3.0036: real time      3.0037

 eigenvalue-minimisations  :   650
 total energy-change (2. order) : 0.8605958E-02  (-0.2359224E-02)
 number of electron      88.0000000 magnetization 
 augmentation part        2.0905122 magnetization 

 DIPCOR: dipole corrections for dipol
 direction  3 min pos   136,
 dipolmoment           0.000000      0.000000      0.378911 electrons x Angstroem
 Tr[quadrupol]      -408.180524

 energy correction for charged system         0.000000 eV
 dipol+quadrupol energy correction           -0.034919 eV
 added-field ion interaction        -10.847151 eV  (added to PSCEN)


 Broyden mixing:
  rms(total) = 0.23174E-01    rms(broyden)= 0.23173E-01
  rms(prec ) = 0.38445E-01
  weight for this iteration     100.00

 eigenvalues of (default mixing * dielectric matrix)
  average eigenvalue GAMMA=   1.8190
  2.8788  2.8788  1.5827  1.5827  0.9955  0.9955

 Free energy of the ion-electron system (eV)
  ---------------------------------------------------
  alpha Z        PSCENC =        90.88478590
  Ewald energy   TEWEN  =     11886.79234063
  -Hartree energ DENC   =    -14783.02765863
  -exchange      EXHF   =         0.00000000
  -V(xc)+E(xc)   XCENC  =       304.72759974
  PAW double counting   =      8039.95828721    -8053.67072985
  entropy T*S    EENTRO =         0.01280406
  eigenvalues    EBANDS =      -724.07361409
  atomic energy  EATOM  =      3042.99389965
  Solvation  Ediel_sol  =         0.00000000
  ---------------------------------------------------
  free energy    TOTEN  =      -195.40228537 eV

  energy without entropy =     -195.41508944  energy(sigma->0) =     -195.40655340


--------------------------------------------------------------------------------------------------------




--------------------------------------- Iteration      1(  12)  ---------------------------------------


    POTLOK:  cpu time      0.0991: real time      0.0991
    SETDIJ:  cpu time      0.1077: real time      0.1077
    EDDIAG:  cpu time      0.5153: real time      0.5153
  RMM-DIIS:  cpu time      2.0383: real time      2.0383
    ORTHCH:  cpu time      0.0463: real time      0.0463
       DOS:  cpu time      0.0004: real time      0.0004
    CHARGE:  cpu time      0.2242: real time      0.2242
    MIXING:  cpu time      0.0048: real time      0.0048
    --------------------------------------------
      LOOP:  cpu time      3.0361: real time      3.0362

 eigenvalue-minimisations  :   660
 total energy-change (2. order) : 0.6499644E-02  (-0.1174727E-02)
 number of electron      88.0000000 magnetization 
 augmentation part        2.0889628 magnetization 

 DIPCOR: dipole corrections for dipol
 direction  3 min pos   134,
 dipolmoment           0.000000      0.000000      0.448786 electrons x Angstroem
 Tr[quadrupol]      -408.676080

 energy correction for charged system         0.000000 eV
 dipol+quadrupol energy correction           -0.048985 eV
 added-field ion interaction        -15.439486 eV  (added to PSCEN)


 Broyden mixing:
  rms(total) = 0.13073E-01    rms(broyden)= 0.13073E-01
  rms(prec ) = 0.24424E-01
  weight for this iteration     100.00

 eigenvalues of (default mixing * dielectric matrix)
  average eigenvalue GAMMA=   1.8648
  3.9957  2.7355  1.9747  1.2863  1.2863  1.0242  0.7508

 Free energy of the ion-electron system (eV)
  ---------------------------------------------------
  alpha Z        PSCENC =        86.27838468
  Ewald energy   TEWEN  =     11886.79234063
  -Hartree energ DENC   =    -14794.93706053
  -exchange      EXHF   =         0.00000000
  -V(xc)+E(xc)   XCENC  =       304.78317583
  PAW double counting   =      7995.85244993    -8009.59210393
  entropy T*S    EENTRO =         0.01299801
  eigenvalues    EBANDS =      -707.57987001
  atomic energy  EATOM  =      3042.99389965
  Solvation  Ediel_sol  =         0.00000000
  ---------------------------------------------------
  free energy    TOTEN  =      -195.39578573 eV

  energy without entropy =     -195.40878374  energy(sigma->0) =     -195.40011840


--------------------------------------------------------------------------------------------------------




--------------------------------------- Iteration      1(  13)  ---------------------------------------


    POTLOK:  cpu time      0.1008: real time      0.1008
    SETDIJ:  cpu time      0.1070: real time      0.1070
    EDDIAG:  cpu time      0.5169: real time      0.5169
  RMM-DIIS:  cpu time      1.9843: real time      1.9844
    ORTHCH:  cpu time      0.0450: real time      0.0450
       DOS:  cpu time      0.0004: real time      0.0004
    CHARGE:  cpu time      0.2223: real time      0.2223
    MIXING:  cpu time      0.0055: real time      0.0055
    --------------------------------------------
      LOOP:  cpu time      2.9821: real time      2.9822

 eigenvalue-minimisations  :   645
 total energy-change (2. order) :-0.1077868E-01  (-0.2550820E-02)
 number of electron      88.0000000 magnetization 
 augmentation part        2.0871176 magnetization 

 DIPCOR: dipole corrections for dipol
 direction  3 min pos   149,
 dipolmoment           0.000000      0.000000      0.591524 electrons x Angstroem
 Tr[quadrupol]      -410.011865

 energy correction for charged system         0.000000 eV
 dipol+quadrupol energy correction           -0.085100 eV
 added-field ion interaction          5.273012 eV  (added to PSCEN)


 Broyden mixing:
  rms(total) = 0.22002E-01    rms(broyden)= 0.22002E-01
  rms(prec ) = 0.50881E-01
  weight for this iteration     100.00

 eigenvalues of (default mixing * dielectric matrix)
  average eigenvalue GAMMA=   1.6928
  3.7815  2.4793  2.3646  1.3690  1.3690  0.9278  0.9278  0.3235

 Free energy of the ion-electron system (eV)
  ---------------------------------------------------
  alpha Z        PSCENC =       106.95476763
  Ewald energy   TEWEN  =     11886.79234063
  -Hartree energ DENC   =    -14799.53786477
  -exchange      EXHF   =         0.00000000
  -V(xc)+E(xc)   XCENC  =       304.83796153
  PAW double counting   =      7999.59435502    -8013.34764074
  entropy T*S    EENTRO =         0.01492020
  eigenvalues    EBANDS =      -723.70930357
  atomic energy  EATOM  =      3042.99389965
  Solvation  Ediel_sol  =         0.00000000
  ---------------------------------------------------
  free energy    TOTEN  =      -195.40656441 eV

  energy without entropy =     -195.42148461  energy(sigma->0) =     -195.41153781


--------------------------------------------------------------------------------------------------------




--------------------------------------- Iteration      1(  14)  ---------------------------------------


    POTLOK:  cpu time      0.0993: real time      0.0993
    SETDIJ:  cpu time      0.1066: real time      0.1066
    EDDIAG:  cpu time      0.5218: real time      0.5218
  RMM-DIIS:  cpu time      2.0844: real time      2.0845
    ORTHCH:  cpu time      0.0458: real time      0.0458
       DOS:  cpu time      0.0004: real time      0.0004
    CHARGE:  cpu time      0.2431: real time      0.2431
    MIXING:  cpu time      0.0058: real time      0.0058
    --------------------------------------------
      LOOP:  cpu time      3.1072: real time      3.1073

 eigenvalue-minimisations  :   671
 total energy-change (2. order) :-0.2186423E-01  (-0.2382867E-02)
 number of electron      88.0000000 magnetization 
 augmentation part        2.0849022 magnetization 

 DIPCOR: dipole corrections for dipol
 direction  3 min pos   156,
 dipolmoment           0.000000      0.000000      0.662809 electrons x Angstroem
 Tr[quadrupol]      -410.754433

 energy correction for charged system         0.000000 eV
 dipol+quadrupol energy correction           -0.106847 eV
 added-field ion interaction         19.306903 eV  (added to PSCEN)


 Broyden mixing:
  rms(total) = 0.35842E-01    rms(broyden)= 0.35842E-01
  rms(prec ) = 0.73416E-01
  weight for this iteration     100.00

 eigenvalues of (default mixing * dielectric matrix)
  average eigenvalue GAMMA=   1.5208
  3.7880  2.5224  2.3207  1.3676  1.3676  0.9255  0.9255  0.4025  0.0676

 Free energy of the ion-electron system (eV)
  ---------------------------------------------------
  alpha Z        PSCENC =       120.96691163
  Ewald energy   TEWEN  =     11886.79234063
  -Hartree energ DENC   =    -14802.61662559
  -exchange      EXHF   =         0.00000000
  -V(xc)+E(xc)   XCENC  =       304.90264316
  PAW double counting   =      8018.74940618    -8032.52157562
  entropy T*S    EENTRO =         0.01220203
  eigenvalues    EBANDS =      -734.70763070
  atomic energy  EATOM  =      3042.99389965
  Solvation  Ediel_sol  =         0.00000000
  ---------------------------------------------------
  free energy    TOTEN  =      -195.42842863 eV

  energy without entropy =     -195.44063066  energy(sigma->0) =     -195.43249597


--------------------------------------------------------------------------------------------------------




--------------------------------------- Iteration      1(  15)  ---------------------------------------


    POTLOK:  cpu time      0.0995: real time      0.0995
    SETDIJ:  cpu time      0.1068: real time      0.1068
    EDDIAG:  cpu time      0.5214: real time      0.5215
  RMM-DIIS:  cpu time      2.3895: real time      2.3895
    ORTHCH:  cpu time      0.0445: real time      0.0445
       DOS:  cpu time      0.0004: real time      0.0003
    CHARGE:  cpu time      0.2279: real time      0.2281
    MIXING:  cpu time      0.0062: real time      0.0062
    --------------------------------------------
      LOOP:  cpu time      3.3961: real time      3.3964

 eigenvalue-minimisations  :   745
 total energy-change (2. order) :-0.8083520E-02  (-0.5772530E-03)
 number of electron      88.0000000 magnetization 
 augmentation part        2.0842092 magnetization 

 DIPCOR: dipole corrections for dipol
 direction  3 min pos   159,
 dipolmoment           0.000000      0.000000      0.686160 electrons x Angstroem
 Tr[quadrupol]      -411.023288

 energy correction for charged system         0.000000 eV
 dipol+quadrupol energy correction           -0.114508 eV
 added-field ion interaction         25.931567 eV  (added to PSCEN)


 Broyden mixing:
  rms(total) = 0.40053E-01    rms(broyden)= 0.40053E-01
  rms(prec ) = 0.80904E-01
  weight for this iteration     100.00

 eigenvalues of (default mixing * dielectric matrix)
  average eigenvalue GAMMA=   1.4283
  3.7543  2.5159  2.3582  1.3859  1.3859  0.9231  0.9231  0.3551  0.3409  0.3409

 Free energy of the ion-electron system (eV)
  ---------------------------------------------------
  alpha Z        PSCENC =       127.58391463
  Ewald energy   TEWEN  =     11886.79234063
  -Hartree energ DENC   =    -14802.59207884
  -exchange      EXHF   =         0.00000000
  -V(xc)+E(xc)   XCENC  =       304.90059366
  PAW double counting   =      8017.97799399    -8031.74956851
  entropy T*S    EENTRO =         0.01121349
  eigenvalues    EBANDS =      -741.35482087
  atomic energy  EATOM  =      3042.99389965
  Solvation  Ediel_sol  =         0.00000000
  ---------------------------------------------------
  free energy    TOTEN  =      -195.43651215 eV

  energy without entropy =     -195.44772565  energy(sigma->0) =     -195.44024998


--------------------------------------------------------------------------------------------------------




--------------------------------------- Iteration      1(  16)  ---------------------------------------


    POTLOK:  cpu time      0.0997: real time      0.0997
    SETDIJ:  cpu time      0.1065: real time      0.1065
    EDDIAG:  cpu time      0.5214: real time      0.5214
  RMM-DIIS:  cpu time      1.8580: real time      1.8582
    ORTHCH:  cpu time      0.0447: real time      0.0447
       DOS:  cpu time      0.0003: real time      0.0003
    CHARGE:  cpu time      0.2229: real time      0.2229
    MIXING:  cpu time      0.0058: real time      0.0058
    --------------------------------------------
      LOOP:  cpu time      2.8593: real time      2.8595

 eigenvalue-minimisations  :   596
 total energy-change (2. order) :-0.6513095E-02  (-0.1221803E-03)
 number of electron      88.0000000 magnetization 
 augmentation part        2.0838880 magnetization 

 DIPCOR: dipole corrections for dipol
 direction  3 min pos   161,
 dipolmoment           0.000000      0.000000      0.696182 electrons x Angstroem
 Tr[quadrupol]      -411.251833

 energy correction for charged system         0.000000 eV
 dipol+quadrupol energy correction           -0.117878 eV
 added-field ion interaction         30.331205 eV  (added to PSCEN)


 Broyden mixing:
  rms(total) = 0.44001E-01    rms(broyden)= 0.44001E-01
  rms(prec ) = 0.86696E-01
  weight for this iteration     100.00

 eigenvalues of (default mixing * dielectric matrix)
  average eigenvalue GAMMA=   1.6299
  4.6288  2.6189  2.1924  1.4126  1.4126  1.2311  1.2311  0.9629  0.9629  0.6380
  0.6380

 Free energy of the ion-electron system (eV)
  ---------------------------------------------------
  alpha Z        PSCENC =       131.98018301
  Ewald energy   TEWEN  =     11886.79234063
  -Hartree energ DENC   =    -14803.06905840
  -exchange      EXHF   =         0.00000000
  -V(xc)+E(xc)   XCENC  =       304.89875951
  PAW double counting   =      8013.98731169    -8027.76063886
  entropy T*S    EENTRO =         0.01059730
  eigenvalues    EBANDS =      -745.27641978
  atomic energy  EATOM  =      3042.99389965
  Solvation  Ediel_sol  =         0.00000000
  ---------------------------------------------------
  free energy    TOTEN  =      -195.44302525 eV

  energy without entropy =     -195.45362255  energy(sigma->0) =     -195.44655768


--------------------------------------------------------------------------------------------------------




--------------------------------------- Iteration      1(  17)  ---------------------------------------


    POTLOK:  cpu time      0.0987: real time      0.0987
    SETDIJ:  cpu time      0.1063: real time      0.1063
    EDDIAG:  cpu time      0.5223: real time      0.5223
  RMM-DIIS:  cpu time      1.9925: real time      1.9926
    ORTHCH:  cpu time      0.0449: real time      0.0449
       DOS:  cpu time      0.0003: real time      0.0003
    CHARGE:  cpu time      0.2234: real time      0.2234
    MIXING:  cpu time      0.0077: real time      0.0077
    --------------------------------------------
      LOOP:  cpu time      2.9960: real time      2.9961

 eigenvalue-minimisations  :   642
 total energy-change (2. order) :-0.2526345E-02  (-0.1892000E-03)
 number of electron      88.0000000 magnetization 
 augmentation part        2.0840274 magnetization 

 DIPCOR: dipole corrections for dipol
 direction  3 min pos   161,
 dipolmoment           0.000000      0.000000      0.676619 electrons x Angstroem
 Tr[quadrupol]      -411.442326

 energy correction for charged system         0.000000 eV
 dipol+quadrupol energy correction           -0.111346 eV
 added-field ion interaction         29.478891 eV  (added to PSCEN)


 Broyden mixing:
  rms(total) = 0.52548E-01    rms(broyden)= 0.52548E-01
  rms(prec ) = 0.94197E-01
  weight for this iteration     100.00

 eigenvalues of (default mixing * dielectric matrix)
  average eigenvalue GAMMA=   1.6989
  5.5369  2.5008  2.5008  1.7496  1.7496  0.6073  0.6073  1.2531  1.2531  0.9359
  0.9359  0.7567

 Free energy of the ion-electron system (eV)
  ---------------------------------------------------
  alpha Z        PSCENC =       131.13440071
  Ewald energy   TEWEN  =     11886.79234063
  -Hartree energ DENC   =    -14804.94072648
  -exchange      EXHF   =         0.00000000
  -V(xc)+E(xc)   XCENC  =       304.87909882
  PAW double counting   =      8001.81918217    -8015.58881510
  entropy T*S    EENTRO =         0.01055022
  eigenvalues    EBANDS =      -742.54548222
  atomic energy  EATOM  =      3042.99389965
  Solvation  Ediel_sol  =         0.00000000
  ---------------------------------------------------
  free energy    TOTEN  =      -195.44555159 eV

  energy without entropy =     -195.45610181  energy(sigma->0) =     -195.44906833


--------------------------------------------------------------------------------------------------------




--------------------------------------- Iteration      1(  18)  ---------------------------------------


    POTLOK:  cpu time      0.0988: real time      0.0988
    SETDIJ:  cpu time      0.1068: real time      0.1070
    EDDIAG:  cpu time      0.5169: real time      0.5170
  RMM-DIIS:  cpu time      2.1457: real time      2.1464
    ORTHCH:  cpu time      0.0442: real time      0.0442
       DOS:  cpu time      0.0003: real time      0.0003
    CHARGE:  cpu time      0.2266: real time      0.2266
    MIXING:  cpu time      0.0078: real time      0.0078
    --------------------------------------------
      LOOP:  cpu time      3.1471: real time      3.1481

 eigenvalue-minimisations  :   692
 total energy-change (2. order) : 0.1435767E-01  (-0.4694240E-03)
 number of electron      88.0000000 magnetization 
 augmentation part        2.0843052 magnetization 

 DIPCOR: dipole corrections for dipol
 direction  3 min pos   160,
 dipolmoment           0.000000      0.000000      0.637588 electrons x Angstroem
 Tr[quadrupol]      -411.435088

 energy correction for charged system         0.000000 eV
 dipol+quadrupol energy correction           -0.098870 eV
 added-field ion interaction         25.937140 eV  (added to PSCEN)


 Broyden mixing:
  rms(total) = 0.54603E-01    rms(broyden)= 0.54603E-01
  rms(prec ) = 0.87408E-01
  weight for this iteration     100.00

 eigenvalues of (default mixing * dielectric matrix)
  average eigenvalue GAMMA=   1.5944
  5.6584  2.5123  2.5123  1.7055  1.7055  0.5977  0.5977  1.2673  1.2673  0.9331
  0.9331  0.7321  0.3046

 Free energy of the ion-electron system (eV)
  ---------------------------------------------------
  alpha Z        PSCENC =       127.60512482
  Ewald energy   TEWEN  =     11886.79234063
  -Hartree energ DENC   =    -14806.34699185
  -exchange      EXHF   =         0.00000000
  -V(xc)+E(xc)   XCENC  =       304.88891541
  PAW double counting   =      7998.03181573    -8011.80655947
  entropy T*S    EENTRO =         0.01316229
  eigenvalues    EBANDS =      -737.60290114
  atomic energy  EATOM  =      3042.99389965
  Solvation  Ediel_sol  =         0.00000000
  ---------------------------------------------------
  free energy    TOTEN  =      -195.43119392 eV

  energy without entropy =     -195.44435622  energy(sigma->0) =     -195.43558136


--------------------------------------------------------------------------------------------------------




--------------------------------------- Iteration      1(  19)  ---------------------------------------


    POTLOK:  cpu time      0.0995: real time      0.0995
    SETDIJ:  cpu time      0.1064: real time      0.1064
    EDDIAG:  cpu time      0.5159: real time      0.5159
  RMM-DIIS:  cpu time      2.0115: real time      2.0116
    ORTHCH:  cpu time      0.0449: real time      0.0449
       DOS:  cpu time      0.0004: real time      0.0004
    CHARGE:  cpu time      0.2241: real time      0.2241
    MIXING:  cpu time      0.0075: real time      0.0075
    --------------------------------------------
      LOOP:  cpu time      3.0103: real time      3.0104

 eigenvalue-minimisations  :   651
 total energy-change (2. order) : 0.9048884E-02  (-0.3052350E-03)
 number of electron      88.0000000 magnetization 
 augmentation part        2.0847534 magnetization 

 DIPCOR: dipole corrections for dipol
 direction  3 min pos   159,
 dipolmoment           0.000000      0.000000      0.619647 electrons x Angstroem
 Tr[quadrupol]      -411.339789

 energy correction for charged system         0.000000 eV
 dipol+quadrupol energy correction           -0.093385 eV
 added-field ion interaction         23.417908 eV  (added to PSCEN)


 Broyden mixing:
  rms(total) = 0.50243E-01    rms(broyden)= 0.50243E-01
  rms(prec ) = 0.78328E-01
  weight for this iteration     100.00

 eigenvalues of (default mixing * dielectric matrix)
  average eigenvalue GAMMA=   1.5622
  5.6120  2.4972  2.4972  1.6160  1.6160  0.5781  0.5781  0.9687  0.9687  1.1746
  1.1746  0.9286  0.9286  0.7316

 Free energy of the ion-electron system (eV)
  ---------------------------------------------------
  alpha Z        PSCENC =       125.09137936
  Ewald energy   TEWEN  =     11886.79234063
  -Hartree energ DENC   =    -14806.28811210
  -exchange      EXHF   =         0.00000000
  -V(xc)+E(xc)   XCENC  =       304.88685182
  PAW double counting   =      7996.24750903    -8010.02190223
  entropy T*S    EENTRO =         0.01456412
  eigenvalues    EBANDS =      -735.13867532
  atomic energy  EATOM  =      3042.99389965
  Solvation  Ediel_sol  =         0.00000000
  ---------------------------------------------------
  free energy    TOTEN  =      -195.42214504 eV

  energy without entropy =     -195.43670916  energy(sigma->0) =     -195.42699975


--------------------------------------------------------------------------------------------------------




--------------------------------------- Iteration      1(  20)  ---------------------------------------


    POTLOK:  cpu time      0.0990: real time      0.0990
    SETDIJ:  cpu time      0.1063: real time      0.1063
    EDDIAG:  cpu time      0.5151: real time      0.5151
  RMM-DIIS:  cpu time      1.4681: real time      1.4682
    ORTHCH:  cpu time      0.0437: real time      0.0437
       DOS:  cpu time      0.0003: real time      0.0003
    --------------------------------------------
      LOOP:  cpu time      2.2324: real time      2.2325

 eigenvalue-minimisations  :   451
 total energy-change (2. order) :-0.5664736E-04  (-0.1848566E-04)
 number of electron      88.0000000 magnetization 
 augmentation part        2.0847534 magnetization 

 DIPCOR: dipole corrections for dipol
 direction  3 min pos   159,
 dipolmoment           0.000000      0.000000      0.619698 electrons x Angstroem
 Tr[quadrupol]      -411.339914

 energy correction for charged system         0.000000 eV
 dipol+quadrupol energy correction           -0.093400 eV
 added-field ion interaction         23.419803 eV  (added to PSCEN)


 Free energy of the ion-electron system (eV)
  ---------------------------------------------------
  alpha Z        PSCENC =       125.09325832
  Ewald energy   TEWEN  =     11886.79234063
  -Hartree energ DENC   =    -14806.28905737
  -exchange      EXHF   =         0.00000000
  -V(xc)+E(xc)   XCENC  =       304.88686256
  PAW double counting   =      7996.24099472    -8010.01540015
  entropy T*S    EENTRO =         0.01456108
  eigenvalues    EBANDS =      -735.13966113
  atomic energy  EATOM  =      3042.99389965
  Solvation  Ediel_sol  =         0.00000000
  ---------------------------------------------------
  free energy    TOTEN  =      -195.42220169 eV

  energy without entropy =     -195.43676277  energy(sigma->0) =     -195.42705538


--------------------------------------------------------------------------------------------------------




 average (electrostatic) potential at core
  the test charge radii are     0.6991  0.5201
  (the norm of the test charge is              1.0000)
       1 -55.0512       2 -54.2215       3 -54.1762       4 -55.2784       5 -54.8070
       6 -54.8139       7 -54.2227       8 -54.1753       9 -54.8696      10 -54.8078
      11 -55.0502      12 -54.2211      13 -54.1749      14 -55.2781      15 -54.8073
      16 -54.8190      17 -54.2214      18 -54.1749      19 -54.8704      20 -54.8094
      21 -39.4386      22 -39.4386      23 -39.4383      24 -39.4376      25 -39.4369
      26 -39.4375      27 -39.4374      28 -39.4389



 E-fermi :   0.5949     XC(G=0):  -5.7642     alpha+bet : -5.7167

 Fermi energy:         0.5948521471

 k-point     1 :       0.0000    0.0000    0.0000
  band No.  band energies     occupation 
      1     -20.5968      2.00000
      2     -18.3351      2.00000
      3     -16.4170      2.00000
      4     -16.2365      2.00000
      5     -16.0957      2.00000
      6     -15.6592      2.00000
      7     -14.4903      2.00000
      8     -14.4730      2.00000
      9     -14.3484      2.00000
     10     -12.4369      2.00000
     11     -12.1978      2.00000
     12     -12.1969      2.00000
     13     -11.8210      2.00000
     14     -11.4626      2.00000
     15     -11.3143      2.00000
     16     -10.4702      2.00000
     17      -9.8500      2.00000
     18      -9.7361      2.00000
     19      -9.7332      2.00000
     20      -8.9146      2.00000
     21      -8.5816      2.00000
     22      -7.1639      2.00000
     23      -6.7698      2.00000
     24      -6.6805      2.00000
     25      -6.6408      2.00000
     26      -6.2081      2.00000
     27      -6.0691      2.00000
     28      -5.6819      2.00000
     29      -5.5074      2.00000
     30      -4.9476      2.00000
     31      -4.8667      2.00000
     32      -4.5974      2.00000
     33      -3.8037      2.00000
     34      -3.5316      2.00000
     35      -3.0937      2.00000
     36      -2.5110      2.00000
[...]
     62       8.0249      0.00000
     63       8.4799      0.00000
     64       8.5965      0.00000

 k-point     3 :       0.0000    0.3333    0.0000
  band No.  band energies     occupation 
      1     -20.0458      2.00000
      2     -18.1213      2.00000
      3     -17.4251      2.00000
      4     -15.7446      2.00000
      5     -15.7409      2.00000
      6     -15.3660      2.00000
      7     -14.3195      2.00000
      8     -13.8046      2.00000
      9     -13.6593      2.00000
     10     -13.6568      2.00000
     11     -13.1279      2.00000
     12     -11.6240      2.00000
     13     -10.7107      2.00000
     14     -10.4253      2.00000
     15      -9.7918      2.00000
     16      -9.7789      2.00000
     17      -9.2658      2.00000
     18      -9.1408      2.00000
     19      -8.8760      2.00000
     20      -8.5721      2.00000
     21      -8.1021      2.00000
     22      -7.7251      2.00000
     23      -6.8271      2.00000
     24      -6.3682      2.00000
     25      -6.1632      2.00000
     26      -5.9381      2.00000
     27      -5.3091      2.00000
     28      -5.2532      2.00000
     29      -5.0669      2.00000
     30      -4.8108      2.00000
     31      -4.5453      2.00000
     32      -4.5131      2.00000
     33      -4.1832      2.00000
     34      -3.9745      2.00000
     35      -3.7276      2.00000
     36      -3.6115      2.00000
     37      -3.2506      2.00000
     38      -3.0608      2.00000
     39      -2.5847      2.00000
     40      -1.3931      2.00000
     41      -0.9194      2.00000
     42       0.3018      2.00472
     43       0.3658      2.01531
     44       0.6361      1.89143
     45       1.9529     -0.00000
     46       2.4522     -0.00000
     47       2.7298     -0.00000
     48       3.8977     -0.00000
     49       4.4670     -0.00000
     50       4.9729     -0.00000
     51       5.1492     -0.00000
     52       6.0044     -0.00000
     53       6.4237      0.00000
     54       6.7542      0.00000
     55       6.8993      0.00000
     56       7.1730      0.00000
     57       7.4645      0.00000
     58       7.7486      0.00000
     59       7.8314      0.00000
     60       8.0360      0.00000
     61       8.0561      0.00000
     62       8.1650      0.00000
     63       8.3007      0.00000
     64       8.4245      0.00000

 k-point     4 :       0.3333    0.3333    0.0000
  band No.  band energies     occupation 
      1     -19.5424      2.00000
      2     -18.0538      2.00000
      3     -17.6293      2.00000
      4     -16.9465      2.00000
      5     -16.2087      2.00000
      6     -15.5916      2.00000
      7     -14.9005      2.00000
      8     -13.6980      2.00000
      9     -13.1804      2.00000
     10     -12.6601      2.00000
     11     -12.5068      2.00000
     12     -11.3797      2.00000
     13     -11.2123      2.00000
     14     -10.1520      2.00000
     15      -9.9145      2.00000
     16      -9.3584      2.00000
     17      -9.0709      2.00000
     18      -8.7188      2.00000
     19      -8.3034      2.00000
     20      -7.5350      2.00000
     21      -7.4202      2.00000
     22      -7.2801      2.00000
     23      -7.0558      2.00000
     24      -6.7158      2.00000
     25      -6.0637      2.00000
     26      -5.8607      2.00000
     27      -5.7692      2.00000
     28      -5.7096      2.00000
     29      -5.4965      2.00000
     30      -5.1575      2.00000
     31      -4.8209      2.00000
     32      -4.6431      2.00000
     33      -4.3208      2.00000
     34      -4.2350      2.00000
     35      -3.9327      2.00000
     36      -3.5572      2.00000
     37      -3.2421      2.00000
     38      -2.9775      2.00000
     39      -2.8141      2.00000
     40      -2.7086      2.00000
     41      -1.6842      2.00000
     42      -1.3161      2.00000
     43      -0.4919      2.00000
     44       0.5786      2.03801
     45       2.2843     -0.00000
     46       2.7461     -0.00000
     47       3.0992     -0.00000
     48       4.3048     -0.00000
     49       4.3739     -0.00000
     50       5.1886     -0.00000
     51       5.6989     -0.00000
     52       6.0142     -0.00000
     53       6.2146     -0.00000
     54       6.6797      0.00000
     55       6.8863      0.00000
     56       7.2028      0.00000
     57       7.2751      0.00000
     58       7.5549      0.00000
     59       8.1107      0.00000
     60       8.1875      0.00000
     61       8.3910      0.00000
     62       8.6139      0.00000
     63       8.6584      0.00000
     64       8.7685      0.00000

 k-point     5 :      -0.3333    0.3333    0.0000
  band No.  band energies     occupation 
      1     -19.5424      2.00000
      2     -18.0538      2.00000
      3     -17.6293      2.00000
      4     -16.9465      2.00000
      5     -16.2087      2.00000
      6     -15.5916      2.00000
      7     -14.9005      2.00000
      8     -13.6980      2.00000
      9     -13.1804      2.00000
     10     -12.6601      2.00000
     11     -12.5067      2.00000
     12     -11.3797      2.00000
     13     -11.2124      2.00000
     14     -10.1520      2.00000
     15      -9.9145      2.00000
     16      -9.3584      2.00000
     17      -9.0709      2.00000
     18      -8.7188      2.00000
     19      -8.3034      2.00000
     20      -7.5350      2.00000
     21      -7.4202      2.00000
     22      -7.2801      2.00000
     23      -7.0558      2.00000
     24      -6.7158      2.00000
     25      -6.0637      2.00000
     26      -5.8607      2.00000
     27      -5.7692      2.00000
     28      -5.7096      2.00000
     29      -5.4964      2.00000
     30      -5.1576      2.00000
     31      -4.8209      2.00000
     32      -4.6431      2.00000
     33      -4.3208      2.00000
     34      -4.2350      2.00000
     35      -3.9327      2.00000
     36      -3.5572      2.00000
     37      -3.2421      2.00000
     38      -2.9774      2.00000
     39      -2.8141      2.00000
     40      -2.7087      2.00000
     41      -1.6842      2.00000
     42      -1.3161      2.00000
     43      -0.4919      2.00000
     44       0.5786      2.03800
     45       2.2843     -0.00000
     46       2.7461     -0.00000
     47       3.0992     -0.00000
     48       4.3048     -0.00000
     49       4.3739     -0.00000
     50       5.1886     -0.00000
     51       5.6989     -0.00000
     52       6.0142     -0.00000
     53       6.2146     -0.00000
     54       6.6797      0.00000
     55       6.8863      0.00000
     56       7.2028      0.00000
     57       7.2751      0.00000
     58       7.5549      0.00000
     59       8.1107      0.00000
     60       8.1875      0.00000
     61       8.3910      0.00000
     62       8.6060      0.00000
     63       8.6582      0.00000
     64       8.7603      0.00000


--------------------------------------------------------------------------------------------------------


 soft charge-density along one line, spin component           1
         0         1         2         3         4         5         6         7         8         9
 total charge-density along one line

 pseudopotential strength for first ion, spin component:           1
 10.005  13.300   0.000  -0.001  -0.000  -0.000   0.002   0.000
 13.300  17.680   0.000  -0.001  -0.000  -0.000   0.003   0.000
  0.000   0.000  -4.173  -0.000   0.000   8.175   0.000  -0.000
 -0.001  -0.001  -0.000  -4.171  -0.000   0.000   8.171   0.000
 -0.000  -0.000   0.000  -0.000  -4.171  -0.000   0.000   8.172
 -0.000  -0.000   8.175   0.000  -0.000 -18.140  -0.000   0.000
  0.002   0.003   0.000   8.171   0.000  -0.000 -18.134  -0.000
  0.000   0.000  -0.000   0.000   8.172   0.000  -0.000 -18.134
 total augmentation occupancy for first ion, spin component:           1
  6.625  -2.810   0.000  -0.041   0.000   0.000  -0.011   0.000
 -2.810   1.276  -0.000   0.030  -0.000  -0.000   0.007  -0.000
  0.000  -0.000   1.517   0.000  -0.000   0.127   0.000  -0.000
 -0.041   0.030   0.000   1.469  -0.000   0.000   0.118  -0.000
  0.000  -0.000  -0.000  -0.000   1.485  -0.000  -0.000   0.116
  0.000  -0.000   0.127   0.000  -0.000   0.012   0.000  -0.000
 -0.011   0.007   0.000   0.118  -0.000   0.000   0.011  -0.000
  0.000  -0.000  -0.000  -0.000   0.116  -0.000  -0.000   0.011


------------------------ aborting loop because EDIFF is reached ----------------------------------------


    CHARGE:  cpu time      0.2288: real time      0.2290
    FORLOC:  cpu time      0.0096: real time      0.0097
    FORNL :  cpu time      1.2675: real time      1.2676
    STRESS:  cpu time      3.9397: real time      3.9403
    FORCOR:  cpu time      0.0908: real time      0.0908
    FORHAR:  cpu time      0.0273: real time      0.0274
    MIXING:  cpu time      0.0038: real time      0.0038
    OFIELD:  cpu time      0.0001: real time      0.0001

  FORCE on cell =-STRESS in cart. coord.  units (eV):
  Direction    XX          YY          ZZ          XY          YZ          ZX
  --------------------------------------------------------------------------------------
  Alpha Z   101.76686   101.76686   101.76686
  Ewald   14220.95632 13963.84583-16315.76361     0.00342    -0.00254    -0.00727
  Hartree 14575.54855 14392.17535-14180.21386     0.00047    -0.00072    -0.00158
  E(xc)    -328.54156  -330.01923  -331.31505     0.00001    -0.00000    -0.00001
  Local  -29805.29466-29380.41773 29474.06876    -0.00345     0.00306     0.00801
  n-local  -102.32431   -93.14805   -95.00350     0.00001     0.00013     0.00027
  augment    -6.19969    -6.09461    -6.29381    -0.00000    -0.00000     0.00000
  Kinetic  1412.44400  1347.59009  1352.89906    -0.00070    -0.00061    -0.00109
  Fock        0.00000     0.00000     0.00000     0.00000     0.00000     0.00000
  -------------------------------------------------------------------------------------
  Total      68.35550    -4.30150     0.14484    -0.00024    -0.00069    -0.00166
  in kB     294.38401   -18.52510     0.62379    -0.00104    -0.00298    -0.00715
  external pressure =       92.16 kB  Pullay stress =        0.00 kB


 VOLUME and BASIS-vectors are now :
 -----------------------------------------------------------------------------
  energy-cutoff  :      800.00
  volume of cell :      372.02
      direct lattice vectors                 reciprocal lattice vectors
     5.052600000  0.000000000  0.000000000     0.197917904  0.000000000  0.000000000
     0.000000000  5.052600000  0.000000000     0.000000000  0.197917904  0.000000000
     0.000000000  0.000000000 14.572700000     0.000000000  0.000000000  0.068621463

  length of vectors
     5.052600000  5.052600000 14.572700000     0.197917904  0.197917904  0.068621463


 FORCES acting on ions
    electron-ion (+dipol)            ewald-force                    non-local-force                 convergence-correction
 -----------------------------------------------------------------------------------------------
   0.481E-03 -.506E-03 -.144E+03   -.493E-03 0.690E-03 0.145E+03   0.442E-04 -.127E-03 -.749E+00   0.670E-04 -.166E-03 -.711E-02
   0.358E-03 0.250E+02 0.482E+03   -.354E-03 -.259E+02 -.481E+03   0.124E-03 -.519E-01 -.102E+01   -.152E-04 -.769E-02 -.153E-03
   0.706E-02 0.977E+02 -.626E+03   -.767E-02 -.989E+02 0.628E+03   -.486E-03 0.114E+01 -.174E+01   -.142E-03 -.373E-02 -.559E-02
   -.877E-03 0.351E-03 0.197E+03   0.974E-03 -.348E-03 -.197E+03   -.125E-04 0.374E-04 -.689E+00   -.463E-04 0.134E-04 0.221E-02
   -.172E-02 0.959E+02 -.391E+03   0.152E-02 -.974E+02 0.391E+03   0.960E-04 0.141E+01 -.613E+00   0.175E-03 -.434E-03 -.391E-02
   0.922E-03 0.320E-03 0.182E+01   -.778E-03 -.537E-03 0.266E+00   -.123E-04 0.328E-04 -.209E+01   -.506E-04 0.104E-03 -.483E-02
   0.266E-03 -.250E+02 0.482E+03   -.278E-03 0.259E+02 -.481E+03   0.144E-03 0.519E-01 -.102E+01   -.115E-05 0.770E-02 -.247E-03
   0.514E-02 -.977E+02 -.626E+03   -.547E-02 0.989E+02 0.628E+03   -.320E-03 -.114E+01 -.174E+01   -.138E-04 0.390E-02 -.554E-02
   -.906E-03 0.520E-03 0.263E+03   0.106E-02 -.513E-03 -.262E+03   -.820E-04 0.857E-05 -.935E+00   -.122E-03 -.415E-04 0.139E-01
   -.323E-02 -.959E+02 -.391E+03   0.345E-02 0.974E+02 0.391E+03   -.464E-04 -.141E+01 -.613E+00   0.588E-04 0.565E-03 -.399E-02
   0.107E-02 -.349E-03 -.144E+03   -.116E-02 0.373E-03 0.145E+03   -.845E-04 0.167E-04 -.749E+00   -.220E-04 -.111E-03 -.708E-02
   0.311E-03 0.250E+02 0.482E+03   -.340E-03 -.259E+02 -.481E+03   0.126E-03 -.519E-01 -.102E+01   0.150E-05 -.768E-02 -.143E-03
   -.338E-02 0.977E+02 -.626E+03   0.407E-02 -.989E+02 0.628E+03   0.659E-03 0.114E+01 -.174E+01   -.193E-03 -.242E-02 -.558E-02
   -.948E-03 0.335E-03 0.197E+03   0.967E-03 -.349E-03 -.197E+03   0.142E-04 0.339E-04 -.689E+00   0.241E-04 0.304E-04 0.219E-02
   -.728E-03 0.960E+02 -.391E+03   0.656E-03 -.974E+02 0.391E+03   0.745E-04 0.141E+01 -.613E+00   0.171E-03 -.295E-03 -.397E-02
   -.618E-03 -.632E-03 0.182E+01   0.527E-03 0.765E-03 0.264E+00   0.536E-05 -.108E-04 -.209E+01   0.233E-03 -.224E-04 -.457E-02
   0.385E-03 -.250E+02 0.482E+03   -.411E-03 0.259E+02 -.481E+03   0.106E-03 0.519E-01 -.102E+01   -.178E-05 0.770E-02 -.260E-03
   -.574E-03 -.977E+02 -.626E+03   0.429E-03 0.989E+02 0.628E+03   -.539E-03 -.114E+01 -.174E+01   -.167E-03 0.258E-02 -.551E-02
   -.661E-03 0.606E-03 0.263E+03   0.571E-03 -.591E-03 -.262E+03   -.104E-03 -.832E-05 -.935E+00   -.695E-06 -.683E-04 0.140E-01
   -.229E-02 -.959E+02 -.391E+03   0.270E-02 0.974E+02 0.391E+03   -.702E-04 -.141E+01 -.613E+00   0.105E-04 0.391E-03 -.389E-02
   -.177E+02 0.235E+01 0.186E+03   0.212E+02 -.259E+01 -.191E+03   -.363E+01 -.466E-01 0.469E+01   0.384E-03 -.861E-03 -.885E-03
   0.177E+02 0.235E+01 0.186E+03   -.212E+02 -.259E+01 -.191E+03   0.363E+01 -.466E-01 0.469E+01   -.384E-03 -.856E-03 -.884E-03
   -.177E+02 -.235E+01 0.186E+03   0.212E+02 0.259E+01 -.191E+03   -.363E+01 0.466E-01 0.469E+01   0.393E-03 0.861E-03 -.896E-03
   0.177E+02 -.235E+01 0.186E+03   -.212E+02 0.259E+01 -.191E+03   0.363E+01 0.466E-01 0.469E+01   -.390E-03 0.859E-03 -.897E-03
   -.177E+02 0.235E+01 0.186E+03   0.212E+02 -.259E+01 -.191E+03   -.363E+01 -.466E-01 0.469E+01   0.382E-03 -.855E-03 -.886E-03
   0.177E+02 0.235E+01 0.186E+03   -.212E+02 -.259E+01 -.191E+03   0.363E+01 -.466E-01 0.469E+01   -.381E-03 -.858E-03 -.888E-03
   -.177E+02 -.235E+01 0.186E+03   0.212E+02 0.259E+01 -.191E+03   -.363E+01 0.466E-01 0.469E+01   0.389E-03 0.857E-03 -.902E-03
   0.177E+02 -.235E+01 0.186E+03   -.212E+02 0.259E+01 -.191E+03   0.363E+01 0.466E-01 0.469E+01   -.391E-03 0.860E-03 -.903E-03
 -----------------------------------------------------------------------------------------------
   -.151E-04 -.379E-03 -.150E+02   0.213E-13 -.129E-13 -.199E-12   -.371E-03 -.846E-04 0.151E+02   -.318E-04 0.339E-03 -.372E-01


 POSITION                                       TOTAL-FORCE (eV/Angst)
 -----------------------------------------------------------------------------------
      0.00001      0.00001      2.86580         0.000114     -0.000104      0.004919
      1.26315      1.26315      0.99998         0.000128     -0.901922     -0.090451
      1.26319      1.83571      4.35072        -0.001226      0.003108      0.016032
      1.26315      5.05260      1.90286         0.000053      0.000058      0.007567
      0.00001      1.35516      3.66957         0.000084      0.001479      0.014820
      0.00001      2.52630      2.61694         0.000096     -0.000077     -0.007910
      1.26315      3.78945      0.99998         0.000146      0.902010     -0.090433
      1.26318      3.21691      4.35071        -0.000654     -0.003179      0.016100
      1.26316      2.52630      1.76914        -0.000037     -0.000021      0.016435
      0.00002      3.69745      3.66957         0.000245     -0.001395      0.014741
      2.52631      5.05261      2.86580        -0.000176     -0.000066      0.004739
      3.78945      1.26315      0.99998         0.000114     -0.901921     -0.090484
      3.78944      1.83570      4.35071         0.001166      0.004087      0.016266
      3.78945      0.00000      1.90286         0.000072      0.000055      0.007602
      2.52631      1.35517      3.66957         0.000189      0.001193      0.014561
      2.52631      2.52630      2.61695         0.000163      0.000104     -0.008380
      3.78945      3.78945      0.99998         0.000092      0.902033     -0.090476
      3.78948      3.21692      4.35071        -0.000835     -0.004202      0.016290
      3.78946      2.52630      1.76914        -0.000180     -0.000057      0.016546
      2.52631      3.69745      3.66957         0.000361     -0.001244      0.014648
      1.98137      1.26315      0.23497        -0.120271     -0.278828      0.024583
      0.54493      1.26315      0.23497         0.120287     -0.278828      0.024633
      1.98137      3.78945      0.23497        -0.120265      0.278853      0.024574
      0.54493      3.78945      0.23497         0.120288      0.278833      0.024640
      4.50767      1.26315      0.23497        -0.120266     -0.278848      0.024584
      3.07123      1.26315      0.23497         0.120288     -0.278822      0.024630
      4.50767      3.78945      0.23497        -0.120265      0.278867      0.024596
      3.07123      3.78945      0.23497         0.120288      0.278837      0.024628
 -----------------------------------------------------------------------------------
    total drift:                               -0.000418     -0.000125      0.038865


--------------------------------------------------------------------------------------------------------



  FREE ENERGIE OF THE ION-ELECTRON SYSTEM (eV)
  ---------------------------------------------------
  free  energy   TOTEN  =      -195.40315744 eV

  energy  without entropy=     -195.41577592  energy(sigma->0) =     -195.40736360

 d Force = 0.2587179E-03[-0.380E-04, 0.555E-03]  d Energy = 0.2677988E-03-0.908E-05
 d Force = 0.2068635E+01[ 0.207E+01, 0.207E+01]  d Ewald  = 0.2068635E+01-0.504E-06


--------------------------------------------------------------------------------------------------------


    POTLOK:  cpu time      0.2051: real time      0.2051


--------------------------------------------------------------------------------------------------------


 Quasi-Newton relaxation of ions (Broydens 2nd method)
  g(Force)  = 0.136E-03   g(Stress)= 0.000E+00

 retain information from N=  2 steps
 eigenvalues of (default step * inverse Hessian matrix)
  average eigenvalue of G=   3.6620
 eigenvalue spectrum of G is  0.2613  7.0627


--------------------------------------------------------------------------------------------------------


  
 reached required accuracy - stopping structural energy minimisation
 writing wavefunctions
     LOOP+:  cpu time     11.5942: real time     11.6166
    4ORBIT:  cpu time      0.0000: real time      0.0000

 total amount of memory used by VASP MPI-rank0    79568. kBytes
=======================================================================

   base      :      30000. kBytes
   nonlr-proj:       2541. kBytes
   fftplans  :      21063. kBytes
   grid      :      13509. kBytes
   one-center:         86. kBytes
   wavefun   :      12369. kBytes

  
  
 General timing and accounting informations for this job:
 ========================================================
  
                  Total CPU time used (sec):      173.232
                            User time (sec):      165.205
                          System time (sec):        8.027
                         Elapsed time (sec):      173.498
  
                   Maximum memory used (kb):      142484.
                   Average memory used (kb):          N/A
  
                          Minor page faults:       251938
                          Major page faults:            1
                 Voluntary context switches:         1205
