 vasp.6.4.2 20Jul23 (build Oct 18 2023 12:49:41) complex                         
 executed on             LinuxGNU date 2025.06.06  15:48:02
 running    8 mpi-ranks, with    1 threads/rank, on    1 nodes
 distrk:  each k-point on    8 cores,    1 groups
 distr:  one band on NCORE=   1 cores,    8 groups


--------------------------------------------------------------------------------------------------------


 INCAR:
   SYSTEM = carbon 100
   ISMEAR = -5
   ENCUT = 800
   LREAL = auto
   ALGO = F
   IDIPOL = 3
   LDIPOL = T
   LPARD = T
   EINT = 2.5 0.
   NBMOD = -3
   NCORE = 1
   NSIM = 4

 POTCAR:    PAW_PBE C 08Apr2002                   
 POTCAR:    PAW_PBE H 15Jun2001                   
 POTCAR:    PAW_PBE C 08Apr2002                   
   SHA256 =  253f7b50bb8d59471dbedb8285d89021f4a42ed1a2c5d38a03a736e69125dd95 C/POTCAR              
   COPYR  = (c) Copyright 08Apr2002 Georg Kresse                                                    
   COPYR  = This file is part of the software VASP. Any use, copying, and all other rights are regul
   COPYR  = If you do not have a valid VASP license, you may not use, copy or distribute this file. 
   VRHFIN =C: s2p2                                                                                  
   LEXCH  = PE                                                                                      
   EATOM  =   147.1560 eV,   10.8157 Ry                                                             
                                                                                                    
   TITEL  = PAW_PBE C 08Apr2002                                                                     
   LULTRA =        F    use ultrasoft PP ?                                                          
   IUNSCR =        1    unscreen: 0-lin 1-nonlin 2-no                                               
   RPACOR =    1.200    partial core radius                                                         
   POMASS =   12.011; ZVAL   =    4.000    mass and valenz                                          
   RCORE  =    1.500    outmost cutoff radius                                                       
   RWIGS  =    1.630; RWIGS  =    0.863    wigner-seitz radius (au A)                               
   ENMAX  =  400.000; ENMIN  =  300.000 eV                                                          
   ICORE  =        2    local potential                                                             
   LCOR   =        T    correct aug charges                                                         
   LPAW   =        T    paw PP                                                                      
   EAUG   =  644.873                                                                                
   DEXC   =    0.000                                                                                
   RMAX   =    1.529    core radius for proj-oper                                                   
   RAUG   =    1.300    factor for augmentation sphere                                              
   RDEP   =    1.501    radius for radial grids                                                     
   RDEPT  =    1.300    core radius for aug-charge                                                  
                                                                                                    
   Atomic configuration                                                                             
    4 entries                                                                                       
     n  l   j            E        occ.                                                              
     1  0  0.50      -273.3789   2.0000                                                             
     2  0  0.50       -13.7508   2.0000                                                             
     2  1  0.50        -5.2854   2.0000                                                             
     3  2  1.50        -5.4423   0.0000                                                             
   Description                                                                                      
     l       E           TYP  RCUT    TYP  RCUT                                                     
     0    -13.7508458     23  1.200                                                                 
     0     -8.2022199     23  1.200                                                                 
     1     -5.2854383     23  1.500                                                                 
     1     34.0145650     23  1.500                                                                 
     2     -5.4423304      7  1.500                                                                 
  local pseudopotential read in
  partial core-charges read in
  partial kinetic energy density read in
  atomic valenz-charges read in
  non local Contribution for L=           0  read in
    real space projection operators read in
  non local Contribution for L=           0  read in
    real space projection operators read in
  non local Contribution for L=           1  read in
    real space projection operators read in
  non local Contribution for L=           1  read in
    real space projection operators read in
    PAW grid and wavefunctions read in

   number of l-projection  operators is LMAX  =           4
   number of lm-projection operators is LMMAX =           8

 POTCAR:    PAW_PBE H 15Jun2001                   
   SHA256 =  030f79b5d3ab3cf0e668861823c8fb652ff669f3e15e46930bd03bfd63a607b6 H/POTCAR              
   COPYR  = (c) Copyright 15Jun2001 Georg Kresse                                                    
   COPYR  = This file is part of the software VASP. Any use, copying, and all other rights are regul
   COPYR  = If you do not have a valid VASP license, you may not use, copy or distribute this file. 
   VRHFIN =H: ultrasoft test                                                                        
   LEXCH  = PE                                                                                      
   EATOM  =    12.4884 eV,    0.9179 Ry                                                             
                                                                                                    
   TITEL  = PAW_PBE H 15Jun2001                                                                     
   LULTRA =        F    use ultrasoft PP ?                                                          
   IUNSCR =        0    unscreen: 0-lin 1-nonlin 2-no                                               
   RPACOR =    0.000    partial core radius                                                         
   POMASS =    1.000; ZVAL   =    1.000    mass and valenz                                          
   RCORE  =    1.100    outmost cutoff radius                                                       
   RWIGS  =    0.700; RWIGS  =    0.370    wigner-seitz radius (au A)                               
   ENMAX  =  250.000; ENMIN  =  200.000 eV                                                          
   RCLOC  =    0.701    cutoff for local pot                                                        
   LCOR   =        T    correct aug charges                                                         
   LPAW   =        T    paw PP                                                                      
   EAUG   =  400.000                                                                                
   RMAX   =    1.123    core radius for proj-oper                                                   
   RAUG   =    1.200    factor for augmentation sphere                                              
   RDEP   =    1.112    radius for radial grids                                                     
   RDEPT  =    0.926    core radius for aug-charge                                                  
                                                                                                    
   Atomic configuration                                                                             
    2 entries                                                                                       
     n  l   j            E        occ.                                                              
     1  0  0.50        -6.4927   1.0000                                                             
     2  1  0.50        -3.4015   0.0000                                                             
   Description                                                                                      
     l       E           TYP  RCUT    TYP  RCUT                                                     
     0     -6.4927494     23  1.100                                                                 
     0      6.8029130     23  1.100                                                                 
     1     -4.0817478     23  1.100                                                                 
  local pseudopotential read in
  atomic valenz-charges read in
  non local Contribution for L=           0  read in
    real space projection operators read in
  non local Contribution for L=           0  read in
    real space projection operators read in
  non local Contribution for L=           1  read in
    real space projection operators read in
    PAW grid and wavefunctions read in

   number of l-projection  operators is LMAX  =           3
   number of lm-projection operators is LMMAX =           5

 Optimization of the real space projectors (new method)

 maximal supplied QI-value         = 25.13
 optimisation between [QCUT,QGAM] = [ 14.33, 28.90] = [ 57.47,233.94] Ry 
 Optimized for a Real-space Cutoff    0.89 Angstroem

   l    n(q)    QCUT    max X(q) W(low)/X(q) W(high)/X(q)  e(spline) 
   0      8    14.326   115.676    0.20E-03    0.54E-03    0.88E-07
   0      8    14.326    87.132    0.19E-03    0.54E-03    0.88E-07
   1      7    14.326     4.429    0.49E-03    0.47E-03    0.10E-06
   1      7    14.326     2.733    0.38E-03    0.36E-03    0.91E-07
 Optimization of the real space projectors (new method)

 maximal supplied QI-value         = 34.20
 optimisation between [QCUT,QGAM] = [ 14.37, 28.73] = [ 57.79,231.16] Ry 
 Optimized for a Real-space Cutoff    0.92 Angstroem

   l    n(q)    QCUT    max X(q) W(low)/X(q) W(high)/X(q)  e(spline) 
   0      8    14.366    19.460    0.37E-03    0.44E-03    0.12E-06
   0      8    14.366    12.209    0.35E-03    0.42E-03    0.11E-06
   1      7    14.366     4.655    0.78E-04    0.25E-03    0.18E-06
  PAW_PBE C 08Apr2002                   :
 energy of atom  1       EATOM= -147.1560
 kinetic energy error for atom=    0.0016 (will be added to EATOM!!)
  PAW_PBE H 15Jun2001                   :
 energy of atom  2       EATOM=  -12.4884
 kinetic energy error for atom=    0.0002 (will be added to EATOM!!)


 POSCAR:  C
  positions in direct lattice
  velocities in cartesian coordinates
 exchange correlation table for  LEXCH =        8
   RHO(1)=    0.500       N(1)  =     2000
   RHO(2)=  100.500       N(2)  =     4000



--------------------------------------------------------------------------------------------------------


 ion  position               nearest neighbor table
   1  0.000  0.000  0.197-  10 1.58   5 1.58   4 1.59  14 1.59
   2  0.250  0.250  0.069-  21 1.05  22 1.05   9 1.48   4 1.55
   3  0.250  0.363  0.299-   8 1.38  15 1.51   5 1.51
   4  0.250  0.000  0.131-   2 1.55   7 1.55   1 1.59  11 1.59
   5  0.000  0.268  0.252-  13 1.51   3 1.51   6 1.57   1 1.58
   6  0.000  0.500  0.180-   9 1.52  19 1.52  10 1.57   5 1.57
   7  0.250  0.750  0.069-  23 1.05  24 1.05   9 1.48   4 1.55
   8  0.250  0.637  0.299-   3 1.38  20 1.51  10 1.51
   9  0.250  0.500  0.121-   7 1.48   2 1.48   6 1.52  16 1.52
  10  0.000  0.732  0.252-  18 1.51   8 1.51   6 1.57   1 1.58
  11  0.500  0.000  0.197-  20 1.58  15 1.58  14 1.59   4 1.59
  12  0.750  0.250  0.069-  25 1.05  26 1.05  19 1.48  14 1.55
  13  0.750  0.363  0.299-  18 1.38  15 1.51   5 1.51
  14  0.750  0.000  0.131-  12 1.55  17 1.55  11 1.59   1 1.59
  15  0.500  0.268  0.252-   3 1.51  13 1.51  16 1.57  11 1.58
  16  0.500  0.500  0.180-   9 1.52  19 1.52  15 1.57  20 1.57
  17  0.750  0.750  0.069-  27 1.05  28 1.05  19 1.48  14 1.55
  18  0.750  0.637  0.299-  13 1.38  10 1.51  20 1.51
  19  0.750  0.500  0.121-  17 1.48  12 1.48   6 1.52  16 1.52
  20  0.500  0.732  0.252-   8 1.51  18 1.51  16 1.57  11 1.58
  21  0.392  0.250  0.016-   2 1.05
  22  0.108  0.250  0.016-   2 1.05
  23  0.392  0.750  0.016-   7 1.05
  24  0.108  0.750  0.016-   7 1.05
  25  0.892  0.250  0.016-  12 1.05
  26  0.608  0.250  0.016-  12 1.05
  27  0.892  0.750  0.016-  17 1.05
  28  0.608  0.750  0.016-  17 1.05

  LATTYP: Found a simple tetragonal cell.
 ALAT       =     5.0526000000
 C/A-ratio  =     2.8841982346
  
  Lattice vectors:
  
 A1 = (   5.0526000000,   0.0000000000,   0.0000000000)
 A2 = (   0.0000000000,   5.0526000000,   0.0000000000)
 A3 = (   0.0000000000,   0.0000000000,  14.5727000000)


Analysis of symmetry for initial positions (statically):
=====================================================================
 Subroutine PRICEL returns following result:
 
  LATTYP: Found a simple orthorhombic cell.
 ALAT       =     2.5263000000
 B/A-ratio  =     2.0000000000
 C/A-ratio  =     5.7683964691
  
  Lattice vectors:
  
 A1 = (   2.5263000000,   0.0000000000,   0.0000000000)
 A2 = (   0.0000000000,   5.0526000000,   0.0000000000)
 A3 = (   0.0000000000,   0.0000000000,  14.5727000000)
 
   2 primitive cells build up your supercell.
 

 Routine SETGRP: Setting up the symmetry group for a 
 simple tetragonal supercell.


 Subroutine GETGRP returns: Found  2 space group operations
 (whereof  2 operations were pure point group operations)
 out of a pool of 16 trial point group operations.


The static configuration has the point symmetry C_1h.


Analysis of symmetry for dynamics (positions and initial velocities):
=====================================================================
 Subroutine PRICEL returns following result:
 
  LATTYP: Found a simple orthorhombic cell.
 ALAT       =     2.5263000000
 B/A-ratio  =     2.0000000000
 C/A-ratio  =     5.7683964691
  
  Lattice vectors:
  
 A1 = (   2.5263000000,   0.0000000000,   0.0000000000)
 A2 = (   0.0000000000,   5.0526000000,   0.0000000000)
 A3 = (   0.0000000000,   0.0000000000,  14.5727000000)
 
   2 primitive cells build up your supercell.
 

 Routine SETGRP: Setting up the symmetry group for a 
 simple tetragonal supercell.


 Subroutine GETGRP returns: Found  2 space group operations
 (whereof  2 operations were pure point group operations)
 out of a pool of 16 trial point group operations.


The dynamic configuration has the point symmetry C_1h.


Analysis of constrained symmetry for selective dynamics:
=====================================================================
 Subroutine PRICEL returns following result:
 
  LATTYP: Found a simple orthorhombic cell.
 ALAT       =     2.5263000000
 B/A-ratio  =     2.0000000000
 C/A-ratio  =     5.7683964691
  
  Lattice vectors:
  
 A1 = (   2.5263000000,   0.0000000000,   0.0000000000)
 A2 = (   0.0000000000,   5.0526000000,   0.0000000000)
 A3 = (   0.0000000000,   0.0000000000,  14.5727000000)
 
   2 primitive cells build up your supercell.
 

 Routine SETGRP: Setting up the symmetry group for a 
 simple tetragonal supercell.


 Subroutine GETGRP returns: Found  2 space group operations
 (whereof  2 operations were pure point group operations)
 out of a pool of 16 trial point group operations.


The constrained configuration has the point symmetry C_1h.


 Subroutine INISYM returns: Found  2 space group operations
 (whereof  2 operations are pure point group operations),
 and found     2 'primitive' translations


----------------------------------------------------------------------------------------

                                     Primitive cell                                     

  volume of cell :     186.0115

  direct lattice vectors                    reciprocal lattice vectors
     2.526300000  0.000000000  0.000000000     0.395835807  0.000000000  0.000000000
     0.000000000  5.052600000  0.000000000     0.000000000  0.197917904  0.000000000
     0.000000000  0.000000000 14.572700000     0.000000000  0.000000000  0.068621463

  length of vectors
     2.526300000  5.052600000 14.572700000     0.395835807  0.197917904  0.068621463

  position of ions in fractional coordinates (direct lattice)
     0.000003189  0.000001328  0.196655320
     0.500000000  0.250000000  0.068620000
     0.499997834  0.363317079  0.298552211
     0.500001927  0.000000351  0.130577337
     0.000004576  0.268210944  0.251811239
     0.000004177  0.500000930  0.179578410
     0.500000000  0.750000000  0.068620000
     0.500011971  0.636686436  0.298552072
     0.500003176  0.500000248  0.121401090
     0.000006155  0.731791349  0.251810950
     0.784298680  0.250000000  0.016123816
     0.215701320  0.250000000  0.016123816
     0.784298680  0.750000000  0.016123816
     0.215701320  0.750000000  0.016123816

  ion indices of the primitive-cell ions
   primitive index   ion index
                 1           1
                 2           2
                 3          13
                 4           4
                 5           5
                 6           6
                 7           7
                 8          18
                 9           9
                10          10
                11          25
                12          22
                13          27
                14          24

----------------------------------------------------------------------------------------



 KPOINTS: C fcc         # System label            

Automatic generation of k-mesh.
 Grid dimensions read from file:
 generate k-points for:    3    3    1

 Generating k-lattice:

  Cartesian coordinates                     Fractional coordinates (reciprocal lattice)
     0.065972635  0.000000000  0.000000000     0.333333333  0.000000000  0.000000000
     0.000000000  0.065972635  0.000000000     0.000000000  0.333333333  0.000000000
     0.000000000  0.000000000  0.068621463     0.000000000  0.000000000  1.000000000

  Length of vectors
     0.065972635  0.065972635  0.068621463

  Shift w.r.t. Gamma in fractional coordinates (k-lattice)
     0.000000000  0.000000000  0.000000000

 TETIRR: Found     19 inequivalent tetrahedra from       54
 
 Subroutine IBZKPT returns following result:
 ===========================================
 
 Found      4 irreducible k-points:
 
 Following reciprocal coordinates:
            Coordinates               Weight
  0.000000  0.000000  0.000000      1.000000
  0.333333  0.000000  0.000000      2.000000
  0.000000  0.333333  0.000000      2.000000
  0.333333  0.333333  0.000000      4.000000
 
 Following cartesian coordinates:
            Coordinates               Weight
  0.000000  0.000000  0.000000      1.000000
  0.065973  0.000000  0.000000      2.000000
  0.000000  0.065973  0.000000      2.000000
  0.065973  0.065973  0.000000      4.000000
 


--------------------------------------------------------------------------------------------------------




 Dimension of arrays:
   k-points           NKPTS =      4   k-points in BZ     NKDIM =      4   number of bands    NBANDS=     64
   number of dos      NEDOS =    301   number of ions     NIONS =     28
   non local maximal  LDIM  =      4   non local SUM 2l+1 LMDIM =      8
   total plane-waves  NPLWV = 139968
   max r-space proj   IRMAX =   1277   max aug-charges    IRDMAX=   4639
   dimension x,y,z NGX =    36 NGY =   36 NGZ =  108
   dimension x,y,z NGXF=    72 NGYF=   72 NGZF=  216
   support grid    NGXF=    72 NGYF=   72 NGZF=  216
   ions per type =              20   8
   NGX,Y,Z   is equivalent  to a cutoff of  11.85, 11.85, 12.32 a.u.
   NGXF,Y,Z  is equivalent  to a cutoff of  23.69, 23.69, 24.64 a.u.

 SYSTEM =  carbon 100                              
 POSCAR =   C                                      

 Startparameter for this run:
   NWRITE =      2    write-flag & timer
   PREC   = normal    normal or accurate (medium, high low for compatibility)
   ISTART =      1    job   : 0-new  1-cont  2-samecut
   ICHARG =      0    charge: 1-file 2-atom 10-const
   ISPIN  =      1    spin polarized calculation?
   LNONCOLLINEAR =      F non collinear calculations
   LSORBIT =      F    spin-orbit coupling
   INIWAV =      1    electr: 0-lowe 1-rand  2-diag
   LASPH  =      F    aspherical Exc in radial PAW
 Electronic Relaxation 1
   ENCUT  =  800.0 eV  58.80 Ry    7.67 a.u.  11.65 11.65 33.61*2*pi/ulx,y,z
   ENINI  =  800.0     initial cutoff
   ENAUG  =  644.9 eV  augmentation charge cutoff
   NELM   =     60;   NELMIN=  2; NELMDL=  0     # of ELM steps 
   EDIFF  = 0.1E-03   stopping-criterion for ELM
   LREAL  =      T    real-space projection
   NLSPLINE    = F    spline interpolate recip. space projectors
   LCOMPAT=      F    compatible to vasp.4.4
   GGA_COMPAT  = T    GGA compatible to vasp.4.4-vasp.4.6
   LMAXPAW     = -100 max onsite density
   LMAXMIX     =    2 max onsite mixed and CHGCAR
   VOSKOWN=      0    Vosko Wilk Nusair interpolation
   ROPT   =   -0.00050  -0.00050
 Ionic relaxation
   EDIFFG = 0.1E-02   stopping-criterion for IOM
   NSW    =      0    number of steps for IOM
   NBLOCK =      1;   KBLOCK =      1    inner block; outer block 
   IBRION =     -1    ionic relax: 0-MD 1-quasi-New 2-CG
   NFREE  =      0    steps in history (QN), initial steepest desc. (CG)
   ISIF   =      2    stress and relaxation
   IWAVPR =     10    prediction:  0-non 1-charg 2-wave 3-comb
   ISYM   =      2    0-nonsym 1-usesym 2-fastsym
   LCORR  =      T    Harris-Foulkes like correction to forces

   POTIM  = 0.5000    time-step for ionic-motion
   TEIN   =    0.0    initial temperature
   TEBEG  =    0.0;   TEEND  =   0.0 temperature during run
   SMASS  =  -3.00    Nose mass-parameter (am)
   estimated Nose-frequenzy (Omega)   =  0.10E-29 period in steps = 0.13E+47 mass=  -0.583E-27a.u.
   SCALEE = 1.0000    scale energy and forces
   NPACO  =    256;   APACO  = 10.0  distance and # of slots for P.C.
   PSTRESS=    0.0 pullay stress

  Mass of Ions in am
   POMASS =  12.01  1.00
  Ionic Valenz
   ZVAL   =   4.00  1.00
  Atomic Wigner-Seitz radii
   RWIGS  =  -1.00 -1.00
  virtual crystal weights 
   VCA    =   1.00  1.00
   NELECT =      88.0000    total number of electrons
   NUPDOWN=      -1.0000    fix difference up-down

 DOS related values:
   EMIN   =  10.00;   EMAX   =-10.00  energy-range for DOS
   EFERMI =   0.00;   METHOD = LEGACY      
   ISMEAR =    -5;   SIGMA  =   0.20  broadening in eV -4-tet -1-fermi 0-gaus

 Electronic relaxation 2 (details)
   IALGO  =     68    algorithm
   LDIAG  =      T    sub-space diagonalisation (order eigenvalues)
   LSUBROT=      F    optimize rotation matrix (better conditioning)
   TURBO    =      0    0=normal 1=particle mesh
   IRESTART =      0    0=no restart 2=restart with 2 vectors
   NREBOOT  =      0    no. of reboots
   NMIN     =      0    reboot dimension
   EREF     =   0.00    reference energy to select bands
   IMIX   =      4    mixing-type and parameters
     AMIX     =   0.40;   BMIX     =  1.00
     AMIX_MAG =   1.60;   BMIX_MAG =  1.00
     AMIN     =   0.10
     WC   =   100.;   INIMIX=   1;  MIXPRE=   1;  MAXMIX= -45

 Intra band minimization:
   WEIMIN = 0.0000     energy-eigenvalue tresh-hold
   EBREAK =  0.39E-06  absolut break condition
   DEPER  =   0.30     relativ break condition  

   TIME   =   0.40     timestep for ELM

  volume/ion in A,a.u.               =      13.29        89.66
  Fermi-wavevector in a.u.,A,eV,Ry     =   1.012463  1.913277 13.947074  1.025081
  Thomas-Fermi vector in A             =   2.145574

 Write flags
   LWAVE        =      T    write WAVECAR
   LDOWNSAMPLE  =      F    k-point downsampling of WAVECAR
   LCHARG       =      T    write CHGCAR
   LVTOT        =      F    write LOCPOT, total local potential
   LVHAR        =      F    write LOCPOT, Hartree potential only
   LELF         =      F    write electronic localiz. function (ELF)
   LORBIT       =      0    0 simple, 1 ext, 2 COOP (PROOUT), +10 PAW based schemes


 Dipole corrections
   LMONO  =      F    monopole corrections only (constant potential shift)
   LDIPOL =      T    correct potential (dipole corrections)
   IDIPOL =      3    1-x, 2-y, 3-z, 4-all directions 
   EPSILON=  1.0000000 bulk dielectric constant

 Exchange correlation treatment:
   GGA     =    --    GGA type
   LEXCH   =     8    internal setting for exchange type
   LIBXC   =     F    Libxc                    
   VOSKOWN =     0    Vosko Wilk Nusair interpolation
   LHFCALC =     F    Hartree Fock is set to
   LHFONE  =     F    Hartree Fock one center treatment
   AEXX    =    0.0000 exact exchange contribution

 Linear response parameters
   LEPSILON=     F    determine dielectric tensor
   LRPA    =     F    only Hartree local field effects (RPA)
   LNABLA  =     F    use nabla operator in PAW spheres
   LVEL    =     F    velocity operator in full k-point grid
   CSHIFT  =0.1000    complex shift for real part using Kramers Kronig
   OMEGAMAX=  -1.0    maximum frequency
   DEG_THRESHOLD= 0.2000000E-02 threshold for treating states as degnerate
   RTIME   =   -0.100 relaxation time in fs
  (WPLASMAI=    0.000 imaginary part of plasma frequency in eV, 0.658/RTIME)
   DFIELD  = 0.0000000 0.0000000 0.0000000 field for delta impulse in time

  Optional k-point grid parameters
   LKPOINTS_OPT  =     F    use optional k-point grid
   KPOINTS_OPT_MODE=     1    mode for optional k-point grid

 Orbital magnetization related:
   ORBITALMAG=     F  switch on orbital magnetization
   LCHIMAG   =     F  perturbation theory with respect to B field
   DQ        =  0.001000  dq finite difference perturbation B field
   LLRAUG    =     F  two centre corrections for induced B field
   LBONE     =     F  B-component reconstruction in AE one-centre
   LVGVCALC  =     T  calculate vGv susceptibility
   LVGVAPPL  =     F  apply vGv susceptibility instead of pGv for G=0

 Random number generation:
   RANDOM_GENERATOR = DEFAULT
   PCG_SEED         = not used


--------------------------------------------------------------------------------------------------------


 Static calculation
 charge density and potential will be updated during run
 non-spin polarized calculation
 RMM-DIIS sequential band-by-band and
  variant of blocked Davidson during initial phase
 perform sub-space diagonalisation
    before iterative eigenvector-optimisation
 modified Broyden-mixing scheme, WC =      100.0
 initial mixing is a Kerker type mixing with AMIX =  0.4000 and BMIX =      1.0000
 Hartree-type preconditioning will be used
 using additional bands           20
 real space projection scheme for non local part
 use partial core corrections
 calculate Harris-corrections to forces   (improved forces if not selfconsistent)
 use gradient corrections 
 use of overlap-Matrix (Vanderbilt PP)
 Fermi weights with tetrahedron method with Bloechl corrections


--------------------------------------------------------------------------------------------------------


  energy-cutoff  :      800.00
  volume of cell :      372.02
      direct lattice vectors                 reciprocal lattice vectors
     5.052600000  0.000000000  0.000000000     0.197917904  0.000000000  0.000000000
     0.000000000  5.052600000  0.000000000     0.000000000  0.197917904  0.000000000
     0.000000000  0.000000000 14.572700000     0.000000000  0.000000000  0.068621463

  length of vectors
     5.052600000  5.052600000 14.572700000     0.197917904  0.197917904  0.068621463



 old parameters found on file WAVECAR:
  energy-cutoff  :      800.00
  volume of cell :      372.02
      direct lattice vectors                 reciprocal lattice vectors
     5.052600000  0.000000000  0.000000000     0.197917904  0.000000000  0.000000000
     0.000000000  5.052600000  0.000000000     0.000000000  0.197917904  0.000000000
     0.000000000  0.000000000 14.572700000     0.000000000  0.000000000  0.068621463

  length of vectors


 k-points in units of 2pi/SCALE and weight: C fcc         # System label            
   0.00000000  0.00000000  0.00000000       0.111
   0.06597263  0.00000000  0.00000000       0.222
   0.00000000  0.06597263  0.00000000       0.222
   0.06597263  0.06597263  0.00000000       0.444

 k-points in reciprocal lattice and weights: C fcc         # System label            
   0.00000000  0.00000000  0.00000000       0.111
   0.33333333  0.00000000  0.00000000       0.222
   0.00000000  0.33333333  0.00000000       0.222
   0.33333333  0.33333333  0.00000000       0.444

 position of ions in fractional coordinates (direct lattice) 
   0.00000159  0.00000133  0.19665532
   0.25000000  0.25000000  0.06862000
   0.25000748  0.36331941  0.29855249
   0.25000096  0.00000035  0.13057734
   0.00000229  0.26821094  0.25181124
   0.00000209  0.50000093  0.17957841
   0.25000000  0.75000000  0.06862000
   0.25000650  0.63668348  0.29855214
   0.25000159  0.50000025  0.12140109
   0.00000308  0.73179135  0.25181095
   0.50000217  0.00000114  0.19665558
   0.75000000  0.25000000  0.06862000
   0.74999892  0.36331708  0.29855221
   0.75000069  0.00000037  0.13057734
   0.50000196  0.26821153  0.25181113
   0.50000171  0.50000059  0.17957874
   0.75000000  0.75000000  0.06862000
   0.75000599  0.63668644  0.29855207
   0.75000187  0.50000038  0.12140095
   0.50000261  0.73179179  0.25181108
   0.39214934  0.25000000  0.01612382
   0.10785066  0.25000000  0.01612382
   0.39214934  0.75000000  0.01612382
   0.10785066  0.75000000  0.01612382
   0.89214934  0.25000000  0.01612382
   0.60785066  0.25000000  0.01612382
   0.89214934  0.75000000  0.01612382
   0.60785066  0.75000000  0.01612382

 position of ions in cartesian coordinates  (Angst):
   0.00000806  0.00000671  2.86579898
   1.26315000  1.26315000  0.99997867
   1.26318781  1.83570767  4.35071587
   1.26315487  0.00000177  1.90286436
   0.00001156  1.35516262  3.66956964
   0.00001055  2.52630470  2.61694230
   1.26315000  3.78945000  0.99997867
   1.26318286  3.21690697  4.35071079
   1.26315802  2.52630126  1.76914166
   0.00001555  3.69744897  3.66956542
   2.52631098  0.00000577  2.86580283
   3.78945000  1.26315000  0.99997867
   3.78944453  1.83569587  4.35071180
   3.78945347  0.00000187  1.90286436
   2.52630991  1.35516556  3.66956798
   2.52630866  2.52630298  2.61694709
   3.78945000  3.78945000  0.99997867
   3.78948024  3.21692189  4.35070978
   3.78945944  2.52630192  1.76913964
   2.52631317  3.69745122  3.66956735
   1.98137376  1.26315000  0.23496753
   0.54492624  1.26315000  0.23496753
   1.98137376  3.78945000  0.23496753
   0.54492624  3.78945000  0.23496753
   4.50767376  1.26315000  0.23496753
   3.07122624  1.26315000  0.23496753
   4.50767376  3.78945000  0.23496753
   3.07122624  3.78945000  0.23496753



--------------------------------------------------------------------------------------------------------


 k-point   1 :   0.0000 0.0000 0.0000  plane waves:   19103
 k-point   2 :   0.3333 0.0000 0.0000  plane waves:   19125
 k-point   3 :   0.0000 0.3333 0.0000  plane waves:   19125
 k-point   4 :   0.3333 0.3333 0.0000  plane waves:   19098

 maximum and minimum number of plane-waves per node :     19125    19098

 maximum number of plane-waves:     19125
 maximum index in each direction: 
   IXMAX=   11   IYMAX=   11   IZMAX=   33
   IXMIN=  -11   IYMIN=  -11   IZMIN=  -33


 serial   3D FFT for wavefunctions
 parallel 3D FFT for charge:
    minimum data exchange during FFTs selected (reduces bandwidth)


 total amount of memory used by VASP MPI-rank0    61359. kBytes
=======================================================================

   base      :      30000. kBytes
   nonlr-proj:       2542. kBytes
   fftplans  :       5327. kBytes
   grid      :      13509. kBytes
   one-center:         86. kBytes
   wavefun   :       9895. kBytes

     INWAV:  cpu time      0.0430: real time      0.0430
 Broyden mixing: mesh for mixing (old mesh)
   NGX = 23   NGY = 23   NGZ = 67
  (NGX  = 72   NGY  = 72   NGZ  =216)
  gives a total of  35443 points

 charge density for first step will be calculated from the start-wavefunctions


--------------------------------------------------------------------------------------------------------


 Maximum index for non-local projection operator         1196
 Maximum index for augmentation-charges          559 (set IRDMAX)


--------------------------------------------------------------------------------------------------------


 BZINTS: Fermi energy:    0.696710;   88.000000 electrons
         Band energy:-0.712561E+03;  BLOECHL correction:    0.000000
Calculating partial charge density.
NDMOD =  -3
Energy range vs. Fermi energy from INCAR:    2.500   0.000
Efermi =    0.697
No KPOINTS given: use all of them.

*****************************************************
* Parameters from pardens
*****************************************************

NBMOD is set to  -3
Selected energy range (EINT)    0.6967   3.1967
Selected all k-points to calculate charge density.
k-point no.    1; bands inside the range    3
  45  46  47
k-point no.    2; bands inside the range    3
  45  46  47
k-point no.    3; bands inside the range    3
  45  46  47
k-point no.    4; bands inside the range    3
  45  46  47
Finished calculating partial charge density.
VASP will stop now.
