 running    4 mpi-ranks, with    1 threads/rank, on    1 nodes
 distrk:  each k-point on    4 cores,    1 groups
 distr:  one band on    1 cores,    4 groups
 vasp.6.4.2 20Jul23 (build Oct 18 2023 12:49:41) complex                         
 POSCAR found type information on POSCAR C H 
 POSCAR found :  2 types and       7 ions
 Reading from existing POTCAR
 scaLAPACK will be used
 Reading from existing POTCAR
 -----------------------------------------------------------------------------
|                                                                             |
|               ----> ADVICE to this user running VASP <----                  |
|                                                                             |
|     You have a (more or less) 'small supercell' and for smaller cells       |
|     it is recommended to use the reciprocal-space projection scheme!        |
|     The real-space optimization is not efficient for small cells and it     |
|     is also less accurate ...                                               |
|     Therefore, set LREAL=.FALSE. in the INCAR file.                         |
|                                                                             |
 -----------------------------------------------------------------------------

 LDA part: xc-table for Pade appr. of Perdew
 POSCAR, INCAR and KPOINTS ok, starting setup
 FFT: planning ... GRIDC
 FFT: planning ... GRID_SOFT
 FFT: planning ... GRID
 WAVECAR not read
 entering main loop
       N       E                     dE             d eps       ncg     rms          rms(c)
DAV:   1     0.159740936608E+03    0.15974E+03   -0.12757E+04   512   0.163E+03
DAV:   2    -0.347209108234E+02   -0.19446E+03   -0.18878E+03   696   0.289E+02
DAV:   3    -0.475782734848E+02   -0.12857E+02   -0.12747E+02   696   0.823E+01
DAV:   4    -0.477886105370E+02   -0.21034E+00   -0.20989E+00   736   0.116E+01
DAV:   5    -0.477964381095E+02   -0.78276E-02   -0.78256E-02   784   0.196E+00    0.975E+00
RMM:   6    -0.460444837464E+02    0.17520E+01   -0.16047E+00   516   0.795E+00    0.545E+00
RMM:   7    -0.456663245967E+02    0.37816E+00   -0.10368E+00   513   0.650E+00    0.338E+00
RMM:   8    -0.453676944652E+02    0.29863E+00   -0.47501E-01   515   0.473E+00    0.148E+00
RMM:   9    -0.453702471117E+02   -0.25526E-02   -0.33457E-01   528   0.307E+00    0.160E+00
RMM:  10    -0.452973482749E+02    0.72899E-01   -0.69150E-02   520   0.152E+00    0.563E-01
RMM:  11    -0.452896675682E+02    0.76807E-02   -0.97932E-03   543   0.629E-01    0.413E-01
RMM:  12    -0.452820025639E+02    0.76650E-02   -0.81471E-03   527   0.473E-01    0.988E-02
RMM:  13    -0.452822189548E+02   -0.21639E-03   -0.19600E-03   512   0.260E-01    0.171E-01
RMM:  14    -0.452816372474E+02    0.58171E-03   -0.12485E-03   492   0.185E-01    0.131E-01
RMM:  15    -0.452840881267E+02   -0.24509E-02   -0.21620E-03   496   0.182E-01    0.246E-01
RMM:  16    -0.452902737055E+02   -0.61856E-02   -0.24875E-03   507   0.189E-01    0.426E-01
RMM:  17    -0.452819900093E+02    0.82837E-02   -0.37709E-03   553   0.226E-01    0.898E-02
RMM:  18    -0.452814172940E+02    0.57272E-03   -0.99311E-04   487   0.141E-01    0.131E-02
RMM:  19    -0.452823434157E+02   -0.92612E-03   -0.12245E-03   502   0.142E-01    0.125E-01
RMM:  20    -0.452822659901E+02    0.77426E-04   -0.90813E-05   337   0.663E-02
   1 F= -.45282266E+02 E0= -.45282179E+02  d E =-.452823E+02
 BRION: g(F)=  0.139E+02 g(S)=  0.000E+00
 bond charge predicted
       N       E                     dE             d eps       ncg     rms          rms(c)
DAV:   1    -0.372120330635E+02    0.80703E+01   -0.23146E+02   552   0.114E+02    0.922E+00
RMM:   2    -0.367436872647E+02    0.46835E+00   -0.13035E+01   513   0.226E+01    0.511E+00
RMM:   3    -0.366148061274E+02    0.12888E+00   -0.36173E+00   520   0.122E+01    0.249E+00
RMM:   4    -0.364778776128E+02    0.13693E+00   -0.37748E-01   517   0.471E+00    0.119E+00
RMM:   5    -0.364637619455E+02    0.14116E-01   -0.12447E-01   529   0.238E+00    0.474E-01
RMM:   6    -0.364679972852E+02   -0.42353E-02   -0.39872E-02   547   0.126E+00    0.233E-01
RMM:   7    -0.364669302088E+02    0.10671E-02   -0.80304E-03   543   0.552E-01    0.919E-02
RMM:   8    -0.364671292075E+02   -0.19900E-03   -0.20901E-03   527   0.304E-01    0.692E-02
RMM:   9    -0.364670582973E+02    0.70910E-04   -0.75872E-04   461   0.165E-01
   2 F= -.36467058E+02 E0= -.36465863E+02  d E =0.881521E+01
 BRION: g(F)=  0.154E+03 g(S)=  0.000E+00 retain N=  1 mean eig= 0.30
 eig:   0.298
 bond charge predicted
       N       E                     dE             d eps       ncg     rms          rms(c)
DAV:   1    -0.495360576159E+02   -0.13069E+02   -0.15195E+02   648   0.796E+01    0.106E+01
RMM:   2    -0.489418228583E+02    0.59423E+00   -0.11772E+01   529   0.197E+01    0.708E+00
RMM:   3    -0.471578475269E+02    0.17840E+01   -0.30668E+00   524   0.104E+01    0.344E+00
RMM:   4    -0.470043282520E+02    0.15352E+00   -0.76928E-01   553   0.592E+00    0.186E+00
RMM:   5    -0.468937671970E+02    0.11056E+00   -0.20404E-01   531   0.304E+00    0.118E+00
RMM:   6    -0.468687026606E+02    0.25065E-01   -0.62872E-02   578   0.156E+00    0.874E-01
RMM:   7    -0.468460262490E+02    0.22676E-01   -0.11810E-02   554   0.724E-01    0.476E-01
RMM:   8    -0.468327416113E+02    0.13285E-01   -0.13211E-02   527   0.676E-01    0.134E-01
RMM:   9    -0.468309457203E+02    0.17959E-02   -0.35967E-03   515   0.360E-01    0.152E-01
RMM:  10    -0.468300759562E+02    0.86976E-03   -0.23489E-03   516   0.250E-01    0.533E-02
RMM:  11    -0.468313130269E+02   -0.12371E-02   -0.14151E-03   505   0.220E-01    0.103E-01
RMM:  12    -0.468309188885E+02    0.39414E-03   -0.35694E-04   396   0.122E-01    0.830E-02
RMM:  13    -0.468307452180E+02    0.17367E-03   -0.24994E-04   387   0.824E-02    0.191E-02
RMM:  14    -0.468307753358E+02   -0.30118E-04   -0.29163E-04   356   0.782E-02
   3 F= -.46830775E+02 E0= -.46830945E+02  d E =-.103637E+02
 BRION: g(F)=  0.395E+00 g(S)=  0.000E+00 retain N=  1 mean eig= 0.21
 eig:   0.209
 bond charge predicted
       N       E                     dE             d eps       ncg     rms          rms(c)
DAV:   1    -0.471154724194E+02   -0.28473E+00   -0.71801E+00   584   0.196E+01    0.107E+00
RMM:   2    -0.471412434909E+02   -0.25771E-01   -0.13794E-01   522   0.256E+00    0.113E+00
RMM:   3    -0.471037472867E+02    0.37496E-01   -0.22963E-02   528   0.105E+00    0.431E-01
RMM:   4    -0.471039633393E+02   -0.21605E-03   -0.83298E-03   521   0.626E-01    0.583E-02
RMM:   5    -0.471039709433E+02   -0.76040E-05   -0.11032E-03   503   0.260E-01    0.409E-02
RMM:   6    -0.471039621362E+02    0.88070E-05   -0.42141E-04   430   0.131E-01
   4 F= -.47103962E+02 E0= -.47103337E+02  d E =-.273187E+00
 BRION: g(F)=  0.162E+00 g(S)=  0.000E+00 retain N=  2 mean eig= 1.27
 eig:   0.203  2.333
 bond charge predicted
       N       E                     dE             d eps       ncg     rms          rms(c)
DAV:   1    -0.471953068373E+02   -0.91336E-01   -0.28627E+00   568   0.125E+01    0.794E-01
RMM:   2    -0.472027806452E+02   -0.74738E-02   -0.60784E-02   522   0.161E+00    0.728E-01
RMM:   3    -0.471856096336E+02    0.17171E-01   -0.10718E-02   525   0.692E-01    0.291E-01
RMM:   4    -0.471855597450E+02    0.49889E-04   -0.46372E-03   520   0.445E-01    0.506E-02
RMM:   5    -0.471854877802E+02    0.71965E-04   -0.45410E-04   433   0.178E-01
   5 F= -.47185488E+02 E0= -.47184465E+02  d E =-.815256E-01
 BRION: g(F)=  0.118E+00 g(S)=  0.000E+00 retain N=  1 mean eig= 1.18
 eig:   1.184
 bond charge predicted
       N       E                     dE             d eps       ncg     rms          rms(c)
DAV:   1    -0.472280779848E+02   -0.42518E-01   -0.23712E+00   640   0.118E+01    0.109E+00
RMM:   2    -0.472035900373E+02    0.24488E-01   -0.10826E-01   521   0.229E+00    0.588E-01
RMM:   3    -0.471976640068E+02    0.59260E-02   -0.17178E-02   528   0.997E-01    0.434E-01
RMM:   4    -0.471957069999E+02    0.19570E-02   -0.15415E-02   531   0.752E-01    0.149E-01
RMM:   5    -0.471952090366E+02    0.49796E-03   -0.19631E-03   517   0.313E-01    0.959E-02
RMM:   6    -0.471950715177E+02    0.13752E-03   -0.60791E-04   468   0.159E-01    0.219E-02
RMM:   7    -0.471950602131E+02    0.11305E-04   -0.12818E-04   338   0.784E-02
   6 F= -.47195060E+02 E0= -.47193630E+02  d E =-.957243E-02
 BRION: g(F)=  0.139E+00 g(S)=  0.000E+00 retain N=  1 mean eig= 0.39
 eig:   0.390
 bond charge predicted
       N       E                     dE             d eps       ncg     rms          rms(c)
DAV:   1    -0.472324253763E+02   -0.37354E-01   -0.69791E-01   616   0.634E+00    0.584E-01
RMM:   2    -0.472346746382E+02   -0.22493E-02   -0.34402E-02   525   0.122E+00    0.475E-01
RMM:   3    -0.472257152405E+02    0.89594E-02   -0.56120E-03   517   0.517E-01    0.171E-01
RMM:   4    -0.472257049519E+02    0.10289E-04   -0.30831E-03   518   0.340E-01    0.843E-02
RMM:   5    -0.472255850428E+02    0.11991E-03   -0.39543E-04   421   0.153E-01    0.359E-02
RMM:   6    -0.472255871281E+02   -0.20853E-05   -0.13613E-04   338   0.764E-02
   7 F= -.47225587E+02 E0= -.47224255E+02  d E =-.305269E-01
 BRION: g(F)=  0.365E-02 g(S)=  0.000E+00 retain N=  1 mean eig= 0.47
 eig:   0.473
 bond charge predicted
       N       E                     dE             d eps       ncg     rms          rms(c)
DAV:   1    -0.472283802406E+02   -0.27952E-02   -0.51513E-02   536   0.172E+00    0.159E-01
RMM:   2    -0.472286207340E+02   -0.24049E-03   -0.23399E-03   510   0.285E-01    0.150E-01
RMM:   3    -0.472278726560E+02    0.74808E-03   -0.43337E-04   397   0.134E-01    0.508E-02
RMM:   4    -0.472278648247E+02    0.78312E-05   -0.18209E-04   342   0.864E-02
   8 F= -.47227865E+02 E0= -.47226464E+02  d E =-.227770E-02
 BRION: g(F)=  0.654E-03 g(S)=  0.000E+00 retain N=  1 mean eig= 0.35
 eig:   0.346
 bond charge predicted
       N       E                     dE             d eps       ncg     rms          rms(c)
DAV:   1    -0.472284743797E+02   -0.60172E-03   -0.27110E-02   576   0.123E+00    0.763E-02
RMM:   2    -0.472285411030E+02   -0.66723E-04   -0.51469E-04   443   0.164E-01
   9 F= -.47228541E+02 E0= -.47227134E+02  d E =-.676278E-03
 BRION: g(F)=  0.167E-04 g(S)=  0.000E+00 retain N=  2 mean eig= 2.06
 eig:   0.191  3.934
 reached required accuracy - stopping structural energy minimisation
 writing wavefunctions
