    2    2    1    1
  0.6142167E+01  0.2589935E-09  0.2589935E-09  0.2589935E-09  0.5000000E-15
   1.0000000000000000E-004
  CAR 
 fcc c                                   
      8      8      8
