 vasp.6.4.2 20Jul23 (build Oct 18 2023 12:49:41) complex                         
 executed on             LinuxGNU date 2025.06.06  10:30:08
 running    4 mpi-ranks, with    1 threads/rank, on    1 nodes
 distrk:  each k-point on    4 cores,    1 groups
 distr:  one band on NCORE=   1 cores,    4 groups


--------------------------------------------------------------------------------------------------------


 INCAR:
   SYSTEM = fcc c
   ML_LMLFF = T
   ML_ISTART = 2
   RANDOM_SEED = 688344966                0                0
   NCORE = 1
   NSIM = 4

 POTCAR:    PAW_PBE C 08Apr2002                   
 POTCAR:    PAW_PBE C 08Apr2002                   
   SHA256 =  253f7b50bb8d59471dbedb8285d89021f4a42ed1a2c5d38a03a736e69125dd95 C/POTCAR              
   COPYR  = (c) Copyright 08Apr2002 Georg Kresse                                                    
   COPYR  = This file is part of the software VASP. Any use, copying, and all other rights are regul
   COPYR  = If you do not have a valid VASP license, you may not use, copy or distribute this file. 
   VRHFIN =C: s2p2                                                                                  
   LEXCH  = PE                                                                                      
   EATOM  =   147.1560 eV,   10.8157 Ry                                                             
                                                                                                    
   TITEL  = PAW_PBE C 08Apr2002                                                                     
   LULTRA =        F    use ultrasoft PP ?                                                          
   IUNSCR =        1    unscreen: 0-lin 1-nonlin 2-no                                               
   RPACOR =    1.200    partial core radius                                                         
   POMASS =   12.011; ZVAL   =    4.000    mass and valenz                                          
   RCORE  =    1.500    outmost cutoff radius                                                       
   RWIGS  =    1.630; RWIGS  =    0.863    wigner-seitz radius (au A)                               
   ENMAX  =  400.000; ENMIN  =  300.000 eV                                                          
   ICORE  =        2    local potential                                                             
   LCOR   =        T    correct aug charges                                                         
   LPAW   =        T    paw PP                                                                      
   EAUG   =  644.873                                                                                
   DEXC   =    0.000                                                                                
   RMAX   =    1.529    core radius for proj-oper                                                   
   RAUG   =    1.300    factor for augmentation sphere                                              
   RDEP   =    1.501    radius for radial grids                                                     
   RDEPT  =    1.300    core radius for aug-charge                                                  
                                                                                                    
   Atomic configuration                                                                             
    4 entries                                                                                       
     n  l   j            E        occ.                                                              
     1  0  0.50      -273.3789   2.0000                                                             
     2  0  0.50       -13.7508   2.0000                                                             
     2  1  0.50        -5.2854   2.0000                                                             
     3  2  1.50        -5.4423   0.0000                                                             
   Description                                                                                      
     l       E           TYP  RCUT    TYP  RCUT                                                     
     0    -13.7508458     23  1.200                                                                 
     0     -8.2022199     23  1.200                                                                 
     1     -5.2854383     23  1.500                                                                 
     1     34.0145650     23  1.500                                                                 
     2     -5.4423304      7  1.500                                                                 
  local pseudopotential read in
  partial core-charges read in
  partial kinetic energy density read in
  atomic valenz-charges read in
  non local Contribution for L=           0  read in
    real space projection operators read in
  non local Contribution for L=           0  read in
    real space projection operators read in
  non local Contribution for L=           1  read in
    real space projection operators read in
  non local Contribution for L=           1  read in
    real space projection operators read in
    PAW grid and wavefunctions read in

   number of l-projection  operators is LMAX  =           4
   number of lm-projection operators is LMMAX =           8

  PAW_PBE C 08Apr2002                   :
 energy of atom  1       EATOM= -147.1560
 kinetic energy error for atom=-2089.0381 (will be added to EATOM!!)


 POSCAR:  C
  positions in cartesian coordinates
  No initial velocities read in
 exchange correlation table for  LEXCH =        8
   RHO(1)=    0.500       N(1)  =     2000
   RHO(2)=  100.500       N(2)  =     4000



--------------------------------------------------------------------------------------------------------


 ion  position               nearest neighbor table
   1  0.000  0.000  0.000-   2 1.59   2 1.59   2 1.59   2 1.59
   2  0.250  0.250  0.250-   1 1.59   1 1.59   1 1.59   1 1.59

  LATTYP: Found a face centered cubic cell.
 ALAT       =     3.6627212027
  
  Lattice vectors:
  
 A1 = (   2.5899350000,   0.0000000000,   0.0000000000)
 A2 = (   1.2949675000,   2.2429495042,   0.0000000000)
 A3 = (   1.2949675000,   0.7476498347,   2.1146730723)


Analysis of symmetry for initial positions (statically):
=====================================================================
 Subroutine PRICEL returns:
 Original cell was already a primitive cell.
 

 Routine SETGRP: Setting up the symmetry group for a 
 face centered cubic supercell.


 Subroutine GETGRP returns: Found 48 space group operations
 (whereof 24 operations were pure point group operations)
 out of a pool of 48 trial point group operations.


The static configuration has the point symmetry T_d .
 The point group associated with its full space group is O_h .


Analysis of symmetry for dynamics (positions and initial velocities):
=====================================================================
 Subroutine PRICEL returns:
 Original cell was already a primitive cell.
 

 Routine SETGRP: Setting up the symmetry group for a 
 face centered cubic supercell.


 Subroutine GETGRP returns: Found 48 space group operations
 (whereof 24 operations were pure point group operations)
 out of a pool of 48 trial point group operations.


The dynamic configuration has the point symmetry T_d .
 The point group associated with its full space group is O_h .


 Subroutine INISYM returns: Found 48 space group operations
 (whereof 24 operations are pure point group operations),
 and found     1 'primitive' translations


----------------------------------------------------------------------------------------

                                     Primitive cell                                     

  volume of cell :      12.2843

  direct lattice vectors                    reciprocal lattice vectors
     2.589935000  0.000000000  0.000000000     0.386110076 -0.222920756 -0.157628779
     1.294967500  2.242949504  0.000000000     0.000000000  0.445841513 -0.157628779
     1.294967500  0.747649835  2.114673072     0.000000000  0.000000000  0.472886336

  length of vectors
     2.589935000  2.589935000  2.589935000     0.472886336  0.472886336  0.472886336

  position of ions in fractional coordinates (direct lattice)
     0.000000000  0.000000000  0.000000000
     0.250000000  0.250000000  0.250000000

  ion indices of the primitive-cell ions
   primitive index   ion index
                 1           1
                 2           2

----------------------------------------------------------------------------------------



 KPOINTS: C fcc         # System label            

Automatic generation of k-mesh.
 Grid dimensions read from file:
 generate k-points for:    4    4    4

 Generating k-lattice:

  Cartesian coordinates                     Fractional coordinates (reciprocal lattice)
     0.096527519 -0.055730189 -0.039407195     0.250000000 -0.000000000 -0.000000000
     0.000000000  0.111460378 -0.039407195     0.000000000  0.250000000  0.000000000
     0.000000000  0.000000000  0.118221584     0.000000000  0.000000000  0.250000000

  Length of vectors
     0.118221584  0.118221584  0.118221584

  Shift w.r.t. Gamma in fractional coordinates (k-lattice)
     0.000000000  0.000000000  0.000000000

 
 Subroutine IBZKPT returns following result:
 ===========================================
 
 Found      8 irreducible k-points:
 
 Following reciprocal coordinates:
            Coordinates               Weight
  0.000000  0.000000  0.000000      1.000000
  0.250000  0.000000  0.000000      8.000000
  0.500000  0.000000  0.000000      4.000000
  0.250000  0.250000  0.000000      6.000000
  0.500000  0.250000  0.000000     24.000000
 -0.250000  0.250000  0.000000     12.000000
  0.500000  0.500000  0.000000      3.000000
 -0.250000  0.500000  0.250000      6.000000
 
 Following cartesian coordinates:
            Coordinates               Weight
  0.000000  0.000000  0.000000      1.000000
  0.099423 -0.057402 -0.040589      8.000000
  0.198847 -0.114804 -0.081179      4.000000
  0.099423  0.057402 -0.081179      6.000000
  0.198847  0.000000 -0.121768     24.000000
 -0.099423  0.172206  0.000000     12.000000
  0.198847  0.114804 -0.162358      3.000000
 -0.099423  0.287010  0.081179      6.000000
 


--------------------------------------------------------------------------------------------------------




 Dimension of arrays:
   k-points           NKPTS =      8   k-points in BZ     NKDIM =      8   number of bands    NBANDS=      8
   number of dos      NEDOS =    301   number of ions     NIONS =      2
   non local maximal  LDIM  =      4   non local SUM 2l+1 LMDIM =      8
   total plane-waves  NPLWV =      8
   max r-space proj   IRMAX =      1   max aug-charges    IRDMAX=    200
   dimension x,y,z NGX =     2 NGY =    2 NGZ =    2
   dimension x,y,z NGXF=     2 NGYF=    2 NGZF=    2
   support grid    NGXF=     2 NGYF=    2 NGZF=    2
   ions per type =               2
   NGX,Y,Z   is equivalent  to a cutoff of   1.28,  1.28,  1.28 a.u.
   NGXF,Y,Z  is equivalent  to a cutoff of   1.28,  1.28,  1.28 a.u.

 SYSTEM =  fcc c                                   
 POSCAR =   C                                      

 Startparameter for this run:
   NWRITE =      2    write-flag & timer
   PREC   = normal    normal or accurate (medium, high low for compatibility)
   ISTART =      0    job   : 0-new  1-cont  2-samecut
   ICHARG =      2    charge: 1-file 2-atom 10-const
   ISPIN  =      1    spin polarized calculation?
   LNONCOLLINEAR =      F non collinear calculations
   LSORBIT =      F    spin-orbit coupling
   INIWAV =      1    electr: 0-lowe 1-rand  2-diag
   LASPH  =      F    aspherical Exc in radial PAW
 Electronic Relaxation 1
   ENCUT  =    1.0 eV   0.07 Ry    0.27 a.u.   0.21  0.21  0.21*2*pi/ulx,y,z
   ENINI  =    1.0     initial cutoff
   ENAUG  =  644.9 eV  augmentation charge cutoff
   NELM   =     60;   NELMIN=  2; NELMDL=  0     # of ELM steps 
   EDIFF  = 0.1E-03   stopping-criterion for ELM
   LREAL  =      F    real-space projection
   NLSPLINE    = F    spline interpolate recip. space projectors
   LCOMPAT=      F    compatible to vasp.4.4
   GGA_COMPAT  = T    GGA compatible to vasp.4.4-vasp.4.6
   LMAXPAW     = -100 max onsite density
   LMAXMIX     =    2 max onsite mixed and CHGCAR
   VOSKOWN=      0    Vosko Wilk Nusair interpolation
   ROPT   =    0.00000
 Ionic relaxation
   EDIFFG = 0.1E-02   stopping-criterion for IOM
   NSW    =      0    number of steps for IOM
   NBLOCK =      1;   KBLOCK =      1    inner block; outer block 
   IBRION =     -1    ionic relax: 0-MD 1-quasi-New 2-CG
   NFREE  =      0    steps in history (QN), initial steepest desc. (CG)
   ISIF   =      2    stress and relaxation
   IWAVPR =     11    prediction:  0-non 1-charg 2-wave 3-comb
   ISYM   =      2    0-nonsym 1-usesym 2-fastsym
   LCORR  =      T    Harris-Foulkes like correction to forces

   POTIM  = 0.5000    time-step for ionic-motion
   TEIN   =    0.0    initial temperature
   TEBEG  =    0.0;   TEEND  =   0.0 temperature during run
   SMASS  =  -3.00    Nose mass-parameter (am)
   estimated Nose-frequenzy (Omega)   =  0.10E-29 period in steps = 0.13E+47 mass=  -0.153E-27a.u.
   SCALEE = 1.0000    scale energy and forces
   NPACO  =    256;   APACO  = 10.0  distance and # of slots for P.C.
   PSTRESS=    0.0 pullay stress

  Mass of Ions in am
   POMASS =  12.01
  Ionic Valenz
   ZVAL   =   4.00
  Atomic Wigner-Seitz radii
   RWIGS  =  -1.00
  virtual crystal weights 
   VCA    =   1.00
   NELECT =       8.0000    total number of electrons
   NUPDOWN=      -1.0000    fix difference up-down

 DOS related values:
   EMIN   =  10.00;   EMAX   =-10.00  energy-range for DOS
   EFERMI =   0.00;   METHOD = LEGACY      
   ISMEAR =     1;   SIGMA  =   0.20  broadening in eV -4-tet -1-fermi 0-gaus

 Electronic relaxation 2 (details)
   IALGO  =     38    algorithm
   LDIAG  =      T    sub-space diagonalisation (order eigenvalues)
   LSUBROT=      F    optimize rotation matrix (better conditioning)
   TURBO    =      0    0=normal 1=particle mesh
   IRESTART =      0    0=no restart 2=restart with 2 vectors
   NREBOOT  =      0    no. of reboots
   NMIN     =      0    reboot dimension
   EREF     =   0.00    reference energy to select bands
   IMIX   =      4    mixing-type and parameters
     AMIX     =   0.40;   BMIX     =  1.00
     AMIX_MAG =   1.60;   BMIX_MAG =  1.00
     AMIN     =   0.10
     WC   =   100.;   INIMIX=   1;  MIXPRE=   1;  MAXMIX= -45

 Intra band minimization:
   WEIMIN = 0.0000     energy-eigenvalue tresh-hold
   EBREAK =  0.31E-05  absolut break condition
   DEPER  =   0.30     relativ break condition  

   TIME   =   0.40     timestep for ELM

  volume/ion in A,a.u.               =       6.14        41.45
  Fermi-wavevector in a.u.,A,eV,Ry     =   1.419017  2.681553 27.396821  2.013610
  Thomas-Fermi vector in A             =   2.540082

 Write flags
   LWAVE        =      T    write WAVECAR
   LDOWNSAMPLE  =      F    k-point downsampling of WAVECAR
   LCHARG       =      T    write CHGCAR
   LVTOT        =      F    write LOCPOT, total local potential
   LVHAR        =      F    write LOCPOT, Hartree potential only
   LELF         =      F    write electronic localiz. function (ELF)
   LORBIT       =      0    0 simple, 1 ext, 2 COOP (PROOUT), +10 PAW based schemes


 Dipole corrections
   LMONO  =      F    monopole corrections only (constant potential shift)
   LDIPOL =      F    correct potential (dipole corrections)
   IDIPOL =      0    1-x, 2-y, 3-z, 4-all directions 
   EPSILON=  1.0000000 bulk dielectric constant

 Exchange correlation treatment:
   GGA     =    --    GGA type
   LEXCH   =     8    internal setting for exchange type
   LIBXC   =     F    Libxc                    
   VOSKOWN =     0    Vosko Wilk Nusair interpolation
   LHFCALC =     F    Hartree Fock is set to
   LHFONE  =     F    Hartree Fock one center treatment
   AEXX    =    0.0000 exact exchange contribution

 Linear response parameters
   LEPSILON=     F    determine dielectric tensor
   LRPA    =     F    only Hartree local field effects (RPA)
   LNABLA  =     F    use nabla operator in PAW spheres
   LVEL    =     F    velocity operator in full k-point grid
   CSHIFT  =0.1000    complex shift for real part using Kramers Kronig
   OMEGAMAX=  -1.0    maximum frequency
   DEG_THRESHOLD= 0.2000000E-02 threshold for treating states as degnerate
   RTIME   =   -0.100 relaxation time in fs
  (WPLASMAI=    0.000 imaginary part of plasma frequency in eV, 0.658/RTIME)
   DFIELD  = 0.0000000 0.0000000 0.0000000 field for delta impulse in time

  Optional k-point grid parameters
   LKPOINTS_OPT  =     F    use optional k-point grid
   KPOINTS_OPT_MODE=     1    mode for optional k-point grid

 Orbital magnetization related:
   ORBITALMAG=     F  switch on orbital magnetization
   LCHIMAG   =     F  perturbation theory with respect to B field
   DQ        =  0.001000  dq finite difference perturbation B field
   LLRAUG    =     F  two centre corrections for induced B field
   LBONE     =     F  B-component reconstruction in AE one-centre
   LVGVCALC  =     T  calculate vGv susceptibility
   LVGVAPPL  =     F  apply vGv susceptibility instead of pGv for G=0

 Random number generation:
   RANDOM_GENERATOR = DEFAULT
   PCG_SEED         = not used


--------------------------------------------------------------------------------------------------------


 Static calculation
 charge density and potential will be updated during run
 non-spin polarized calculation
 Variant of blocked Davidson
 Davidson routine will perform the subspace rotation
 perform sub-space diagonalisation
    after iterative eigenvector-optimisation
 modified Broyden-mixing scheme, WC =      100.0
 initial mixing is a Kerker type mixing with AMIX =  0.4000 and BMIX =      1.0000
 Hartree-type preconditioning will be used
 using additional bands            4
 reciprocal scheme for non local part
 use partial core corrections
 calculate Harris-corrections to forces   (improved forces if not selfconsistent)
 use gradient corrections 
 use of overlap-Matrix (Vanderbilt PP)
 Methfessel and Paxton  Order N= 1 SIGMA  =   0.20


--------------------------------------------------------------------------------------------------------


  energy-cutoff  :        1.00
  volume of cell :       12.28
      direct lattice vectors                 reciprocal lattice vectors
     2.589935000  0.000000000  0.000000000     0.386110076 -0.222920756 -0.157628779
     1.294967500  2.242949504  0.000000000     0.000000000  0.445841513 -0.157628779
     1.294967500  0.747649835  2.114673072     0.000000000  0.000000000  0.472886336

  length of vectors
     2.589935000  2.589935000  2.589935000     0.472886336  0.472886336  0.472886336



 k-points in units of 2pi/SCALE and weight: C fcc         # System label            
   0.00000000  0.00000000  0.00000000       0.016
   0.09942334 -0.05740209 -0.04058941       0.125
   0.19884669 -0.11480419 -0.08117882       0.062
   0.09942334  0.05740209 -0.08117882       0.094
   0.19884669  0.00000000 -0.12176823       0.375
  -0.09942334  0.17220628  0.00000000       0.188
   0.19884669  0.11480419 -0.16235764       0.047
  -0.09942334  0.28701047  0.08117882       0.094

 k-points in reciprocal lattice and weights: C fcc         # System label            
   0.00000000  0.00000000  0.00000000       0.016
   0.25000000  0.00000000  0.00000000       0.125
   0.50000000  0.00000000  0.00000000       0.062
   0.25000000  0.25000000  0.00000000       0.094
   0.50000000  0.25000000  0.00000000       0.375
  -0.25000000  0.25000000  0.00000000       0.188
   0.50000000  0.50000000  0.00000000       0.047
  -0.25000000  0.50000000  0.25000000       0.094

 position of ions in fractional coordinates (direct lattice) 
   0.00000000  0.00000000  0.00000000
   0.25000000  0.25000000  0.25000000

 position of ions in cartesian coordinates  (Angst):
   0.00000000  0.00000000  0.00000000
   1.29496750  0.74764983  0.52866827



--------------------------------------------------------------------------------------------------------


 k-point   1 :   0.0000 0.0000 0.0000  plane waves:       1
 k-point   2 :   0.2500 0.0000 0.0000  plane waves:       0
 k-point   3 :   0.5000 0.0000 0.0000  plane waves:       0
 k-point   4 :   0.2500 0.2500 0.0000  plane waves:       0
 k-point   5 :   0.5000 0.2500 0.0000  plane waves:       0
 k-point   6 :  -0.2500 0.2500 0.0000  plane waves:       0
 k-point   7 :   0.5000 0.5000 0.0000  plane waves:       0
 k-point   8 :  -0.2500 0.5000 0.2500  plane waves:       0

 maximum and minimum number of plane-waves per node :         1        0

 maximum number of plane-waves:         1
 maximum index in each direction: 
   IXMAX=    0   IYMAX=    0   IZMAX=    0
   IXMIN=    0   IYMIN=    0   IZMIN=    0



--------------------------------------- Ionic step        1  -------------------------------------------



  ML FORCE on cell =-STRESS in cart. coord. units (eV/cell)
  Direction    XX          YY          ZZ          XY          YZ          ZX
  --------------------------------------------------------------------------------------
  Total:     -2.05706    -2.05706    -2.05706    -0.00000     0.00000    -0.00000
  in kB    -268.29129  -268.29129  -268.29129    -0.00000     0.00000    -0.00000
  external pressure =     -268.29 kB  Pullay stress =        0.00 kB

  kinetic pressure (ideal gas correction) =      0.00 kB
  total pressure  =   -268.29 kB
  Total+kin.  -268.291    -268.291    -268.291      -0.000       0.000      -0.000
  volume of cell :       12.28
      direct lattice vectors                 reciprocal lattice vectors
     2.589935000  0.000000000  0.000000000     0.386110076 -0.222920756 -0.157628779
     1.294967500  2.242949504  0.000000000     0.000000000  0.445841513 -0.157628779
     1.294967500  0.747649835  2.114673072     0.000000000  0.000000000  0.472886336

  length of vectors
     2.589935000  2.589935000  2.589935000     0.472886336  0.472886336  0.472886336


  POSITION                                       TOTAL-FORCE (eV/Angst) (ML)
 -----------------------------------------------------------------------------------
      0.00000      0.00000      0.00000        -0.000000      0.000000     -0.000000
      1.29497      0.74765      0.52867         0.000000     -0.000000      0.000000
 -----------------------------------------------------------------------------------
    total drift:                                0.000000      0.000000      0.000000


--------------------------------------------------------------------------------------------------------



  ML FREE ENERGIE OF THE ION-ELECTRON SYSTEM (eV)
  ---------------------------------------------------
  free  energy ML TOTEN  =       -18.40532723 eV

  ML energy  without entropy=      -18.40532723  ML energy(sigma->0) =      -18.40532723

      MLFF:  cpu time      0.0038: real time      0.0038
      MLFF:  cpu time      0.0008: real time      0.0008
     LOOP+:  cpu time      0.0046: real time      0.0046

 total amount of memory used by VASP MPI-rank0    30000. kBytes
=======================================================================

   base      :      30000. kBytes

  
  
 General timing and accounting informations for this job:
 ========================================================
  
                  Total CPU time used (sec):        0.219
                            User time (sec):        0.188
                          System time (sec):        0.031
                         Elapsed time (sec):        0.416
  
                   Maximum memory used (kb):       44428.
                   Average memory used (kb):          N/A
  
                          Minor page faults:         4644
                          Major page faults:            1
                 Voluntary context switches:         1147
