 running    4 mpi-ranks, with    1 threads/rank, on    1 nodes
 distrk:  each k-point on    4 cores,    1 groups
 distr:  one band on    1 cores,    4 groups
 vasp.6.4.2 20Jul23 (build Oct 18 2023 12:49:41) complex                         
 POSCAR found :  1 types and       2 ions
 Reading from existing POTCAR
 scaLAPACK will be used
 Reading from existing POTCAR
 LDA part: xc-table for Pade appr. of Perdew
 Machine learning selected
 Setting communicators for machine learning
 Initializing machine learning
 The following ML algorithm is executed for production run: FULL.
 POSCAR, INCAR and KPOINTS ok, starting setup
 entering main loop
   1 F= -.18177485E+02 E0= -.18177485E+02  d E =0.000000E+00
