   2   2   0   0
  0.6142167E+01  0.2589935E-09  0.2589935E-09  0.2589935E-09  0.5000000E-15
   1.0000000000000000E-004
  CAR 
 C                                       
     32.55005721    -13.91900244  301      8.72282618      1.00000000
    -13.919  0.0000E+00  0.0000E+00
    -13.764  0.0000E+00  0.0000E+00
    -13.609  0.0000E+00  0.0000E+00
    -13.454  0.0000E+00  0.0000E+00
    -13.299  0.0000E+00  0.0000E+00
    -13.145  0.0000E+00  0.0000E+00
    -12.990  0.0000E+00  0.0000E+00
    -12.835  0.0000E+00  0.0000E+00
    -12.680 -0.3919E-33 -0.6071E-34
    -12.525 -0.1632E-22 -0.2527E-23
    -12.370 -0.5170E-14 -0.8007E-15
    -12.215 -0.1253E-07 -0.1940E-08
    -12.060 -0.1998E-03 -0.3095E-04
    -11.905 -0.4557E-02 -0.7369E-03
    -11.750  0.1869E+00  0.2821E-01
    -11.596  0.2070E-01  0.3142E-01
    -11.441 -0.1103E-02  0.3125E-01
    -11.286 -0.2917E-06  0.3125E-01
    -11.131 -0.4643E-12  0.3125E-01
    -10.976 -0.3104E-26  0.3125E-01
    -10.821 -0.9461E-17  0.3125E-01
    -10.666 -0.2139E-09  0.3125E-01
    -10.511 -0.3542E-04  0.3124E-01
    -10.356 -0.3003E-01  0.2659E-01
    -10.201  0.6357E+00  0.1251E+00
    -10.047  0.1060E+01  0.2892E+00
     -9.892 -0.5286E-01  0.2810E+00
     -9.737 -0.1183E-01  0.2792E+00
     -9.582  0.1153E+01  0.4578E+00
     -9.427  0.7559E-01  0.4695E+00
     -9.272 -0.4815E-02  0.4688E+00
     -9.117 -0.9395E-06  0.4688E+00
     -8.962 -0.1130E-11  0.4688E+00
     -8.807  0.0000E+00  0.4688E+00
     -8.653  0.0000E+00  0.4688E+00
     -8.498 -0.5745E-34  0.4688E+00
     -8.343 -0.5225E-23  0.4688E+00
     -8.188 -0.3612E-14  0.4687E+00
     -8.033 -0.1953E-07  0.4687E+00
     -7.878 -0.7150E-03  0.4686E+00
     -7.723 -0.8508E-01  0.4555E+00
     -7.568  0.1904E+01  0.7504E+00
     -7.413  0.6323E+00  0.8483E+00
     -7.258 -0.2944E-01  0.8438E+00
     -7.104 -0.1893E-04  0.8438E+00
     -6.949 -0.1991E-09  0.8437E+00
     -6.794 -0.2029E-04  0.8437E+00
     -6.639 -0.1581E-01  0.8413E+00
     -6.484  0.3334E+00  0.8929E+00
     -6.329  0.4395E+00  0.9610E+00
     -6.174  0.1577E+01  0.1205E+01
     -6.019  0.3480E+01  0.1744E+01
     -5.864 -0.1643E+00  0.1719E+01
     -5.709 -0.9010E-03  0.1719E+01
     -5.555 -0.1839E-07  0.1719E+01
     -5.400 -0.2150E-14  0.1719E+01
     -5.245  0.0000E+00  0.1719E+01
     -5.090  0.0000E+00  0.1719E+01
     -4.935  0.0000E+00  0.1719E+01
     -4.780 -0.1640E-33  0.1719E+01
     -4.625 -0.1022E-22  0.1719E+01
     -4.470 -0.4878E-14  0.1719E+01
     -4.315 -0.1776E-07  0.1719E+01
     -4.160 -0.4357E-03  0.1719E+01
     -4.006 -0.2644E-01  0.1715E+01
     -3.851  0.6973E+00  0.1823E+01
     -3.696  0.1067E+00  0.1839E+01
     -3.541  0.1075E+01  0.2006E+01
     -3.386  0.1734E+00  0.2033E+01
     -3.231 -0.8660E-02  0.2031E+01
     -3.076 -0.5822E-01  0.2022E+01
     -2.921  0.1210E+01  0.2210E+01
     -2.766  0.1334E+01  0.2416E+01
     -2.612 -0.6460E-01  0.2406E+01
     -2.457 -0.1528E-03  0.2406E+01
     -2.302 -0.1646E-08  0.2406E+01
     -2.147 -0.1066E-11  0.2406E+01
     -1.992 -0.1375E-05  0.2406E+01
     -1.837 -0.1126E-01  0.2405E+01
     -1.682  0.7468E-01  0.2416E+01
     -1.527  0.4679E+01  0.3141E+01
     -1.372  0.1124E+00  0.3158E+01
     -1.217 -0.1256E-01  0.3156E+01
     -1.063 -0.1680E-05  0.3156E+01
     -0.908 -0.1421E-11  0.3156E+01
     -0.753  0.0000E+00  0.3156E+01
     -0.598 -0.6591E-35  0.3156E+01
     -0.443 -0.8730E-24  0.3156E+01
     -0.288 -0.9129E-15  0.3156E+01
     -0.133 -0.6982E-08  0.3156E+01
      0.022 -0.3798E-03  0.3156E+01
      0.177 -0.8008E-01  0.3144E+01
      0.332  0.1677E+01  0.3404E+01
      0.486  0.8648E+00  0.3538E+01
      0.641 -0.4062E-01  0.3531E+01
      0.796 -0.3911E-01  0.3525E+01
      0.951  0.8341E+00  0.3654E+01
      1.106  0.1708E+01  0.3919E+01
      1.261 -0.8134E-01  0.3906E+01
      1.416 -0.7139E-01  0.3895E+01
      1.571  0.1464E+01  0.4122E+01
      1.726  0.1080E+01  0.4289E+01
      1.880 -0.5151E-01  0.4281E+01
      2.035 -0.2314E-02  0.4281E+01
      2.190 -0.1724E+00  0.4254E+01
      2.345  0.4238E+01  0.4911E+01
      2.500  0.2469E+01  0.5293E+01
      2.655 -0.1105E+00  0.5276E+01
      2.810  0.7220E+00  0.5388E+01
      2.965  0.5480E+00  0.5473E+01
      3.120 -0.2617E-01  0.5469E+01
      3.275 -0.3996E-04  0.5469E+01
      3.429 -0.3004E-09  0.5469E+01
      3.584 -0.1713E-11  0.5469E+01
      3.739 -0.1916E-05  0.5469E+01
      3.894 -0.1354E-01  0.5467E+01
      4.049  0.1088E+00  0.5484E+01
      4.204  0.5299E+01  0.6304E+01
      4.359  0.6998E+00  0.6413E+01
      4.514 -0.4187E-01  0.6406E+01
      4.669 -0.5083E-01  0.6398E+01
      4.824  0.1065E+01  0.6563E+01
      4.978  0.1478E+01  0.6792E+01
      5.133 -0.7166E-01  0.6781E+01
      5.288 -0.2238E-03  0.6781E+01
      5.443 -0.2096E-06  0.6781E+01
      5.598 -0.2877E-02  0.6781E+01
      5.753 -0.4221E-01  0.6774E+01
      5.908  0.2220E+01  0.7118E+01
      6.063  0.1416E+01  0.7337E+01
      6.218  0.4666E+00  0.7410E+01
      6.372 -0.2227E-01  0.7406E+01
      6.527 -0.1691E-04  0.7406E+01
      6.682 -0.2485E-04  0.7406E+01
      6.837 -0.3898E-01  0.7400E+01
      6.992  0.8371E+00  0.7530E+01
      7.147  0.2544E+01  0.7924E+01
      7.302 -0.1135E+00  0.7906E+01
      7.457 -0.9652E-03  0.7906E+01
      7.612 -0.2658E-07  0.7906E+01
      7.767 -0.5017E-14  0.7906E+01
      7.921 -0.5623E-22  0.7906E+01
      8.076 -0.1727E-13  0.7906E+01
      8.231 -0.4058E-07  0.7906E+01
      8.386 -0.6265E-03  0.7906E+01
      8.541 -0.1296E-01  0.7904E+01
      8.696  0.5629E+00  0.7991E+01
      8.851  0.5916E-01  0.8000E+01
      9.006 -0.3198E-02  0.8000E+01
      9.161 -0.8171E-06  0.8000E+01
      9.316 -0.1261E-11  0.8000E+01
      9.470  0.0000E+00  0.8000E+01
      9.625  0.0000E+00  0.8000E+01
      9.780  0.0000E+00  0.8000E+01
      9.935  0.0000E+00  0.8000E+01
     10.090  0.0000E+00  0.8000E+01
     10.245  0.0000E+00  0.8000E+01
     10.400  0.0000E+00  0.8000E+01
     10.555  0.0000E+00  0.8000E+01
     10.710  0.0000E+00  0.8000E+01
     10.864  0.0000E+00  0.8000E+01
     11.019  0.0000E+00  0.8000E+01
     11.174  0.0000E+00  0.8000E+01
     11.329  0.0000E+00  0.8000E+01
     11.484  0.0000E+00  0.8000E+01
     11.639  0.0000E+00  0.8000E+01
     11.794  0.0000E+00  0.8000E+01
     11.949 -0.7952E-37  0.8000E+01
     12.104 -0.1988E-25  0.8000E+01
     12.259 -0.3931E-16  0.8000E+01
     12.413 -0.5738E-09  0.8000E+01
     12.568 -0.6066E-04  0.8000E+01
     12.723 -0.3010E-01  0.7995E+01
     12.878  0.6240E+00  0.8092E+01
     13.033  0.6321E+00  0.8190E+01
     13.188  0.3100E+00  0.8238E+01
     13.343  0.9277E+00  0.8382E+01
     13.498 -0.4235E-01  0.8375E+01
     13.653 -0.3132E-03  0.8375E+01
     13.808 -0.5473E-02  0.8374E+01
     13.962  0.1156E+00  0.8392E+01
     14.117  0.5157E+00  0.8472E+01
     14.272 -0.8892E-01  0.8458E+01
     14.427  0.1471E+01  0.8686E+01
     14.582  0.3608E+01  0.9245E+01
     14.737 -0.1676E+00  0.9219E+01
     14.892 -0.1075E-02  0.9219E+01
     15.047 -0.2449E-07  0.9219E+01
     15.202 -0.4300E-14  0.9219E+01
     15.357 -0.1997E-19  0.9219E+01
     15.511 -0.2486E-11  0.9219E+01
     15.666 -0.2403E-05  0.9219E+01
     15.821 -0.1503E-01  0.9216E+01
     15.976  0.1190E+00  0.9235E+01
     16.131  0.5903E+01  0.1015E+02
     16.286  0.1304E+01  0.1035E+02
     16.441  0.4281E+00  0.1042E+02
     16.596  0.3078E+00  0.1047E+02
     16.751  0.7984E+00  0.1059E+02
     16.905  0.8811E+00  0.1073E+02
     17.060 -0.4264E-01  0.1072E+02
     17.215 -0.9852E-04  0.1072E+02
     17.370 -0.1041E-08  0.1072E+02
     17.525 -0.2207E-13  0.1072E+02
     17.680 -0.7174E-07  0.1072E+02
     17.835 -0.1558E-02  0.1072E+02
     17.990 -0.7471E-01  0.1071E+02
     18.145  0.2107E+01  0.1103E+02
     18.300  0.1098E+01  0.1120E+02
     18.454  0.5285E+00  0.1129E+02
     18.609 -0.2677E-01  0.1128E+02
     18.764 -0.8499E-01  0.1127E+02
     18.919  0.1880E+01  0.1156E+02
     19.074  0.6570E+00  0.1166E+02
     19.229 -0.1007E+00  0.1165E+02
     19.384  0.1414E+01  0.1186E+02
     19.539  0.5303E+01  0.1269E+02
     19.694  0.6534E+00  0.1279E+02
     19.849 -0.9986E-01  0.1277E+02
     20.003  0.2175E+01  0.1311E+02
     20.158  0.1282E+01  0.1331E+02
     20.313  0.1309E+01  0.1351E+02
     20.468 -0.7900E-01  0.1350E+02
     20.623  0.2039E+00  0.1353E+02
     20.778  0.4626E+01  0.1425E+02
     20.933  0.6242E+00  0.1434E+02
     21.088  0.4379E+01  0.1502E+02
     21.243 -0.9942E-01  0.1501E+02
     21.397  0.1055E+01  0.1517E+02
     21.552  0.1400E+01  0.1539E+02
     21.707 -0.6787E-01  0.1537E+02
     21.862 -0.4288E-01  0.1537E+02
     22.017  0.9573E+00  0.1552E+02
     22.172  0.3106E+00  0.1556E+02
     22.327 -0.1446E-01  0.1556E+02
     22.482 -0.9096E-05  0.1556E+02
     22.637 -0.3174E-10  0.1556E+02
     22.792 -0.2593E-26  0.1556E+02
     22.946 -0.7130E-17  0.1556E+02
     23.101 -0.1453E-09  0.1556E+02
     23.256 -0.2163E-04  0.1556E+02
     23.411 -0.1618E-01  0.1556E+02
     23.566  0.3408E+00  0.1561E+02
     23.721  0.5070E+00  0.1569E+02
     23.876 -0.2455E-01  0.1569E+02
     24.031 -0.2149E-02  0.1569E+02
     24.186  0.7414E-02  0.1569E+02
     24.341  0.9731E+00  0.1584E+02
     24.495  0.3325E-01  0.1584E+02
     24.650 -0.2958E-02  0.1584E+02
     24.805 -0.4396E-06  0.1584E+02
     24.960 -0.4102E-12  0.1584E+02
     25.115  0.0000E+00  0.1584E+02
     25.270  0.0000E+00  0.1584E+02
     25.425  0.0000E+00  0.1584E+02
     25.580  0.0000E+00  0.1584E+02
     25.735  0.0000E+00  0.1584E+02
     25.889  0.0000E+00  0.1584E+02
     26.044  0.0000E+00  0.1584E+02
     26.199  0.0000E+00  0.1584E+02
     26.354  0.0000E+00  0.1584E+02
     26.509  0.0000E+00  0.1584E+02
     26.664 -0.3095E-34  0.1584E+02
     26.819 -0.2291E-23  0.1584E+02
     26.974 -0.1291E-14  0.1584E+02
     27.129 -0.5644E-08  0.1584E+02
     27.284 -0.1662E-03  0.1584E+02
     27.438 -0.1394E-01  0.1584E+02
     27.593  0.3355E+00  0.1589E+02
     27.748  0.8613E-01  0.1591E+02
     27.903 -0.4042E-02  0.1591E+02
     28.058 -0.2048E-05  0.1591E+02
     28.213 -0.1160E-06  0.1591E+02
     28.368 -0.9448E-03  0.1591E+02
     28.523  0.6413E-02  0.1591E+02
     28.678  0.3899E+00  0.1597E+02
     28.833  0.9157E-02  0.1597E+02
     28.987 -0.1039E-02  0.1597E+02
     29.142 -0.1383E-06  0.1597E+02
     29.297 -0.1163E-12  0.1597E+02
     29.452  0.0000E+00  0.1597E+02
     29.607 -0.4985E-30  0.1597E+02
     29.762 -0.5546E-20  0.1597E+02
     29.917 -0.4642E-12  0.1597E+02
     30.072 -0.2917E-06  0.1597E+02
     30.227 -0.1103E-02  0.1597E+02
     30.382  0.2070E-01  0.1597E+02
     30.536  0.1869E+00  0.1600E+02
     30.691 -0.4557E-02  0.1600E+02
     30.846 -0.1998E-03  0.1600E+02
     31.001 -0.1253E-07  0.1600E+02
     31.156 -0.5152E-14  0.1600E+02
     31.311  0.0000E+00  0.1600E+02
     31.466  0.0000E+00  0.1600E+02
     31.621  0.0000E+00  0.1600E+02
     31.776  0.0000E+00  0.1600E+02
     31.930  0.0000E+00  0.1600E+02
     32.085  0.0000E+00  0.1600E+02
     32.240  0.0000E+00  0.1600E+02
     32.395  0.0000E+00  0.1600E+02
     32.550  0.0000E+00  0.1600E+02
