    2    2    1    1
  0.6142167E+01  0.2589935E-09  0.2589935E-09  0.2589935E-09  0.5000000E-15
   1.0000000000000000E-004
  CAR 
 C                                       
      8     36      8

  0.1262379E-14  0.1262379E-14  0.1262379E-14  0.1562500E-01
      1        -11.806772   1.000000
      2          8.638617   1.000046
      3          8.638641   0.999994
      4          8.638656   0.999960
      5         14.003638   0.000000
      6         14.003643   0.000000
      7         14.003657   0.000000
      8         20.193776   0.000000

  0.2500000E+00  0.1332268E-14  0.1306149E-14  0.3125000E-01
      1        -10.186555   1.000000
      2          2.404542   1.000000
      3          7.023598   1.000000
      4          7.023627   1.000000
      5         16.041210   0.000000
      6         16.051815   0.000000
      7         16.051833   0.000000
      8         21.985159   0.000000

  0.1262379E-14  0.2500000E+00  0.1249046E-14  0.3125000E-01
      1        -10.186556   1.000000
      2          2.404552   1.000000
      3          7.023598   1.000000
      4          7.023620   1.000000
      5         16.041200   0.000000
      6         16.051814   0.000000
      7         16.051833   0.000000
      8         21.985164   0.000000

  0.1262379E-14  0.1262379E-14  0.2500000E+00  0.3125000E-01
      1        -10.186556   1.000000
      2          2.404552   1.000000
      3          7.023598   1.000000
      4          7.023620   1.000000
      5         16.041200   0.000000
      6         16.051814   0.000000
      7         16.051833   0.000000
      8         21.985164   0.000000

  0.2500000E+00  0.2500000E+00  0.2500000E+00  0.3125000E-01
      1        -10.186554   1.000000
      2          2.404531   1.000000
      3          7.023611   1.000000
      4          7.023624   1.000000
      5         16.041219   0.000000
      6         16.051822   0.000000
      7         16.051831   0.000000
      8         28.601365   0.000000

  0.5000000E+00  0.1276756E-14  0.1285506E-14  0.1562500E-01
      1         -6.471260   1.000000
      2         -3.894120   1.000000
      3          6.035936   1.000000
      4          6.035965   1.000000
      5         16.430049   0.000000
      6         16.752863   0.000000
      7         16.752889   0.000000
      8         23.577679   0.000000

  0.1262379E-14  0.5000000E+00  0.1254568E-14  0.1562500E-01
      1         -6.471272   1.000000
      2         -3.894100   1.000000
      3          6.035937   1.000000
      4          6.035959   1.000000
      5         16.430038   0.000000
      6         16.752860   0.000000
      7         16.752885   0.000000
      8         23.577678   0.000000

  0.1262379E-14  0.1262379E-14  0.5000000E+00  0.1562500E-01
      1         -6.471273   1.000000
      2         -3.894100   1.000000
      3          6.035937   1.000000
      4          6.035959   1.000000
      5         16.430038   0.000000
      6         16.752860   0.000000
      7         16.752885   0.000000
      8         23.577678   0.000000

  0.5000000E+00  0.5000000E+00  0.5000000E+00  0.1562500E-01
      1         -6.471247   1.000000
      2         -3.894143   1.000000
      3          6.035947   1.000000
      4          6.035961   1.000000
      5         16.430059   0.000000
      6         16.752874   0.000000
      7         16.752886   0.000000
      8         23.577680   0.000000

  0.2500000E+00  0.2500000E+00  0.1310079E-14  0.3125000E-01
      1         -9.646976   1.000000
      2          4.205048   1.000000
      3          4.833122   1.000000
      4          4.833129   1.000000
      5         12.879264   0.000000
      6         18.291244   0.000000
      7         19.517378   0.000000
      8         19.517378   0.000000

  0.1262379E-14  0.2500000E+00  0.2500000E+00  0.3125000E-01
      1         -9.646976   1.000000
      2          4.205046   1.000000
      3          4.833119   1.000000
      4          4.833136   1.000000
      5         12.879261   0.000000
      6         18.291242   0.000000
      7         19.517378   0.000000
      8         19.517381   0.000000

  0.2500000E+00  0.1332268E-14  0.2500000E+00  0.3125000E-01
      1         -9.646976   1.000000
      2          4.205048   1.000000
      3          4.833122   1.000000
      4          4.833130   1.000000
      5         12.879263   0.000000
      6         18.291243   0.000000
      7         19.517378   0.000000
      8         19.517379   0.000000

  0.5000000E+00  0.2500000E+00  0.1260885E-14  0.3125000E-01
      1         -6.151720   1.000000
      2         -1.603361   1.000000
      3          2.304978   1.000000
      4          4.123362   1.000000
      5         14.452899   0.000000
      6         19.408989   0.000000
      7         20.693353   0.000000
      8         20.984366   0.000000

  0.1262379E-14  0.5000000E+00  0.2500000E+00  0.3125000E-01
      1         -6.151725   1.000000
      2         -1.603347   1.000000
      3          2.304975   1.000000
      4          4.123359   1.000000
      5         14.452886   0.000000
      6         19.408996   0.000000
      7         20.693354   0.000000
      8         20.984360   0.000000

  0.2500000E+00  0.1332268E-14  0.5000000E+00  0.3125000E-01
      1         -6.151725   1.000000
      2         -1.603342   1.000000
      3          2.304963   1.000000
      4          4.123363   1.000000
      5         14.452904   0.000000
      6         19.408984   0.000000
      7         20.693347   0.000000
      8         20.984356   0.000000

  0.2500000E+00  0.2500000E+00 -0.2500000E+00  0.3125000E-01
      1         -6.151726   1.000000
      2         -1.603337   1.000000
      3          2.304949   1.000000
      4          4.123370   1.000000
      5         14.452920   0.000000
      6         19.408971   0.000000
      7         20.693342   0.000000
      8         20.984351   0.000000

  0.5000000E+00  0.2500000E+00  0.5000000E+00  0.3125000E-01
      1         -6.151715   1.000000
      2         -1.603377   1.000000
      3          2.304981   1.000000
      4          4.123369   1.000000
      5         14.452910   0.000000
      6         19.408980   0.000000
      7         20.693353   0.000000
      8         20.984371   0.000000

  0.2500000E+00  0.5000000E+00  0.1260885E-14  0.3125000E-01
      1         -6.151725   1.000000
      2         -1.603342   1.000000
      3          2.304963   1.000000
      4          4.123363   1.000000
      5         14.452904   0.000000
      6         19.408984   0.000000
      7         20.693347   0.000000
      8         20.984356   0.000000

  0.2500000E+00 -0.2500000E+00 -0.2500000E+00  0.3125000E-01
      1         -6.151721   1.000000
      2         -1.603351   1.000000
      3          2.304952   1.000000
      4          4.123377   1.000000
      5         14.452929   0.000000
      6         19.408962   0.000000
      7         20.693343   0.000000
      8         20.984358   0.000000

  0.5000000E+00  0.5000000E+00  0.2500000E+00  0.3125000E-01
      1         -6.151715   1.000000
      2         -1.603377   1.000000
      3          2.304982   1.000000
      4          4.123368   1.000000
      5         14.452910   0.000000
      6         19.408981   0.000000
      7         20.693353   0.000000
      8         20.984371   0.000000

  0.1262379E-14  0.2500000E+00  0.5000000E+00  0.3125000E-01
      1         -6.151725   1.000000
      2         -1.603346   1.000000
      3          2.304974   1.000000
      4          4.123359   1.000000
      5         14.452887   0.000000
      6         19.408996   0.000000
      7         20.693354   0.000000
      8         20.984360   0.000000

 -0.2500000E+00  0.2500000E+00 -0.2500000E+00  0.3125000E-01
      1         -6.151726   1.000000
      2         -1.603337   1.000000
      3          2.304949   1.000000
      4          4.123371   1.000000
      5         14.452920   0.000000
      6         19.408971   0.000000
      7         20.693342   0.000000
      8         20.984351   0.000000

  0.2500000E+00  0.5000000E+00  0.5000000E+00  0.3125000E-01
      1         -6.151716   1.000000
      2         -1.603372   1.000000
      3          2.304969   1.000000
      4          4.123375   1.000000
      5         14.452924   0.000000
      6         19.408967   0.000000
      7         20.693349   0.000000
      8         20.984368   0.000000

  0.5000000E+00  0.1276756E-14  0.2500000E+00  0.3125000E-01
      1         -6.151720   1.000000
      2         -1.603361   1.000000
      3          2.304978   1.000000
      4          4.123362   1.000000
      5         14.452899   0.000000
      6         19.408989   0.000000
      7         20.693353   0.000000
      8         20.984366   0.000000

 -0.2500000E+00  0.2500000E+00  0.1278604E-14  0.3125000E-01
      1         -7.599527   1.000000
      2          0.312271   1.000000
      3          1.561755   1.000000
      4          5.847416   1.000000
      5         16.132145   0.000000
      6         18.097583   0.000000
      7         20.163816   0.000000
      8         21.417625   0.000000

  0.1262379E-14 -0.2500000E+00  0.2500000E+00  0.3125000E-01
      1         -7.599529   1.000000
      2          0.312287   1.000000
      3          1.561748   1.000000
      4          5.847411   1.000000
      5         16.132128   0.000000
      6         18.097589   0.000000
      7         20.163822   0.000000
      8         21.417621   0.000000

  0.2500000E+00  0.1332268E-14 -0.2500000E+00  0.3125000E-01
      1         -7.599527   1.000000
      2          0.312271   1.000000
      3          1.561755   1.000000
      4          5.847416   1.000000
      5         16.132145   0.000000
      6         18.097583   0.000000
      7         20.163816   0.000000
      8         21.417625   0.000000

  0.2500000E+00  0.2500000E+00  0.5000000E+00  0.3125000E-01
      1         -7.599525   1.000000
      2          0.312254   1.000000
      3          1.561761   1.000000
      4          5.847425   1.000000
      5         16.132161   0.000000
      6         18.097578   0.000000
      7         20.163808   0.000000
      8         21.417630   0.000000

 -0.2500000E+00  0.5000000E+00 -0.2500000E+00  0.3125000E-01
      1         -7.599525   1.000000
      2          0.312253   1.000000
      3          1.561762   1.000000
      4          5.847425   1.000000
      5         16.132161   0.000000
      6         18.097578   0.000000
      7         20.163808   0.000000
      8         21.417630   0.000000

  0.5000000E+00 -0.2500000E+00 -0.2500000E+00  0.3125000E-01
      1         -7.599523   1.000000
      2          0.312237   1.000000
      3          1.561767   1.000000
      4          5.847433   1.000000
      5         16.132174   0.000000
      6         18.097575   0.000000
      7         21.287850   0.000000
      8         27.555466   0.000000

  0.5000000E+00  0.5000000E+00  0.1271976E-14  0.1562500E-01
      1         -3.589789   1.000000
      2         -3.589766   1.000000
      3          2.801680   1.000000
      4          2.801686   1.000000
      5         13.216514   0.000000
      6         13.216527   0.000000
      7         24.267504   0.000000
      8         24.267505   0.000000

  0.1262379E-14  0.5000000E+00  0.5000000E+00  0.1562500E-01
      1         -3.589805   1.000000
      2         -3.589752   1.000000
      3          2.801678   1.000000
      4          2.801692   1.000000
      5         13.216499   0.000000
      6         13.216539   0.000000
      7         24.267508   0.000000
      8         30.437827   0.000000

  0.5000000E+00  0.1276756E-14  0.5000000E+00  0.1562500E-01
      1         -3.589790   1.000000
      2         -3.589766   1.000000
      3          2.801680   1.000000
      4          2.801687   1.000000
      5         13.216514   0.000000
      6         13.216527   0.000000
      7         24.267504   0.000000
      8         24.267505   0.000000

 -0.2500000E+00  0.5000000E+00  0.2500000E+00  0.3125000E-01
      1         -2.918465   1.000000
      2         -2.918419   1.000000
      3          0.971857   1.000000
      4          0.971873   1.000000
      5         18.889177   0.000000
      6         18.889208   0.000000
      7         19.949138   0.000000
      8         19.949181   0.000000

  0.2500000E+00 -0.2500000E+00  0.5000000E+00  0.3125000E-01
      1         -2.918466   1.000000
      2         -2.918419   1.000000
      3          0.971857   1.000000
      4          0.971873   1.000000
      5         18.889177   0.000000
      6         18.889208   0.000000
      7         19.949138   0.000000
      8         19.949181   0.000000

  0.5000000E+00  0.2500000E+00 -0.2500000E+00  0.3125000E-01
      1         -2.918456   1.000000
      2         -2.918428   1.000000
      3          0.971860   1.000000
      4          0.971869   1.000000
      5         18.889178   0.000000
      6         18.889205   0.000000
      7         19.949148   0.000000
      8         19.949174   0.000000
