 vasp.6.4.2 20Jul23 (build Oct 18 2023 12:49:41) complex                         
 executed on             LinuxGNU date 2025.06.06  10:33:10
 running    2 mpi-ranks, with    1 threads/rank, on    1 nodes
 distrk:  each k-point on    2 cores,    1 groups
 distr:  one band on NCORE=   1 cores,    2 groups


--------------------------------------------------------------------------------------------------------


 INCAR:
   SYSTEM = C
   ISYM = 0
   ALGO = Very Fast
   PREC = Normal
   IVDW = 10
   ISMEAR = 1
   SIGMA = 0.1
   AMIX = 0.2
   ENCUT = 800
   EDIFF = 1e-6
   LWAVE = F
   LCHARG = F
   LREAL = F
   NCORE = 1
   NSIM = 4

 POTCAR:    PAW_PBE C 08Apr2002                   
 POTCAR:    PAW_PBE C 08Apr2002                   
   SHA256 =  253f7b50bb8d59471dbedb8285d89021f4a42ed1a2c5d38a03a736e69125dd95 C/POTCAR              
   COPYR  = (c) Copyright 08Apr2002 Georg Kresse                                                    
   COPYR  = This file is part of the software VASP. Any use, copying, and all other rights are regul
   COPYR  = If you do not have a valid VASP license, you may not use, copy or distribute this file. 
   VRHFIN =C: s2p2                                                                                  
   LEXCH  = PE                                                                                      
   EATOM  =   147.1560 eV,   10.8157 Ry                                                             
                                                                                                    
   TITEL  = PAW_PBE C 08Apr2002                                                                     
   LULTRA =        F    use ultrasoft PP ?                                                          
   IUNSCR =        1    unscreen: 0-lin 1-nonlin 2-no                                               
   RPACOR =    1.200    partial core radius                                                         
   POMASS =   12.011; ZVAL   =    4.000    mass and valenz                                          
   RCORE  =    1.500    outmost cutoff radius                                                       
   RWIGS  =    1.630; RWIGS  =    0.863    wigner-seitz radius (au A)                               
   ENMAX  =  400.000; ENMIN  =  300.000 eV                                                          
   ICORE  =        2    local potential                                                             
   LCOR   =        T    correct aug charges                                                         
   LPAW   =        T    paw PP                                                                      
   EAUG   =  644.873                                                                                
   DEXC   =    0.000                                                                                
   RMAX   =    1.529    core radius for proj-oper                                                   
   RAUG   =    1.300    factor for augmentation sphere                                              
   RDEP   =    1.501    radius for radial grids                                                     
   RDEPT  =    1.300    core radius for aug-charge                                                  
                                                                                                    
   Atomic configuration                                                                             
    4 entries                                                                                       
     n  l   j            E        occ.                                                              
     1  0  0.50      -273.3789   2.0000                                                             
     2  0  0.50       -13.7508   2.0000                                                             
     2  1  0.50        -5.2854   2.0000                                                             
     3  2  1.50        -5.4423   0.0000                                                             
   Description                                                                                      
     l       E           TYP  RCUT    TYP  RCUT                                                     
     0    -13.7508458     23  1.200                                                                 
     0     -8.2022199     23  1.200                                                                 
     1     -5.2854383     23  1.500                                                                 
     1     34.0145650     23  1.500                                                                 
     2     -5.4423304      7  1.500                                                                 
  local pseudopotential read in
  partial core-charges read in
  partial kinetic energy density read in
  atomic valenz-charges read in
  non local Contribution for L=           0  read in
    real space projection operators read in
  non local Contribution for L=           0  read in
    real space projection operators read in
  non local Contribution for L=           1  read in
    real space projection operators read in
  non local Contribution for L=           1  read in
    real space projection operators read in
    PAW grid and wavefunctions read in

   number of l-projection  operators is LMAX  =           4
   number of lm-projection operators is LMMAX =           8

  PAW_PBE C 08Apr2002                   :
 energy of atom  1       EATOM= -147.1560
 kinetic energy error for atom=    0.0016 (will be added to EATOM!!)


 POSCAR:  C
  positions in cartesian coordinates
  No initial velocities read in
 exchange correlation table for  LEXCH =        8
   RHO(1)=    0.500       N(1)  =     2000
   RHO(2)=  100.500       N(2)  =     4000



--------------------------------------------------------------------------------------------------------


 ion  position               nearest neighbor table
   1  0.000  0.000  0.000-   2 1.59   2 1.59   2 1.59   2 1.59
   2  0.250  0.250  0.250-   1 1.59   1 1.59   1 1.59   1 1.59


IMPORTANT INFORMATION: All symmetrisations will be switched off!
NOSYMM: (Re-)initialisation of all symmetry stuff for point group C_1.


----------------------------------------------------------------------------------------

                                     Primitive cell                                     

  volume of cell :      12.2843

  direct lattice vectors                    reciprocal lattice vectors
     2.589935000  0.000000000  0.000000000     0.386110076 -0.222920756 -0.157628779
     1.294967500  2.242949504  0.000000000     0.000000000  0.445841513 -0.157628779
     1.294967500  0.747649835  2.114673072     0.000000000  0.000000000  0.472886336

  length of vectors
     2.589935000  2.589935000  2.589935000     0.472886336  0.472886336  0.472886336

  position of ions in fractional coordinates (direct lattice)
     0.000000000  0.000000000  0.000000000
     0.250000000  0.250000000  0.250000000

  ion indices of the primitive-cell ions
   primitive index   ion index
                 1           1
                 2           2

----------------------------------------------------------------------------------------



 KPOINTS: C fcc         # System label            

Automatic generation of k-mesh.
 Grid dimensions read from file:
 generate k-points for:    4    4    4

 Generating k-lattice:

  Cartesian coordinates                     Fractional coordinates (reciprocal lattice)
     0.096527519 -0.055730189 -0.039407195     0.250000000 -0.000000000 -0.000000000
     0.000000000  0.111460378 -0.039407195     0.000000000  0.250000000  0.000000000
     0.000000000  0.000000000  0.118221584     0.000000000  0.000000000  0.250000000

  Length of vectors
     0.118221584  0.118221584  0.118221584

  Shift w.r.t. Gamma in fractional coordinates (k-lattice)
     0.000000000  0.000000000  0.000000000

 
 Subroutine IBZKPT returns following result:
 ===========================================
 
 Found     36 irreducible k-points:
 
 Following reciprocal coordinates:
            Coordinates               Weight
  0.000000  0.000000  0.000000      1.000000
  0.250000  0.000000  0.000000      2.000000
  0.000000  0.250000  0.000000      2.000000
  0.000000  0.000000  0.250000      2.000000
  0.250000  0.250000  0.250000      2.000000
  0.500000  0.000000  0.000000      1.000000
  0.000000  0.500000  0.000000      1.000000
  0.000000  0.000000  0.500000      1.000000
  0.500000  0.500000  0.500000      1.000000
  0.250000  0.250000  0.000000      2.000000
  0.000000  0.250000  0.250000      2.000000
  0.250000  0.000000  0.250000      2.000000
  0.500000  0.250000  0.000000      2.000000
  0.000000  0.500000  0.250000      2.000000
  0.250000  0.000000  0.500000      2.000000
  0.250000  0.250000 -0.250000      2.000000
  0.500000  0.250000  0.500000      2.000000
  0.250000  0.500000  0.000000      2.000000
  0.250000 -0.250000 -0.250000      2.000000
  0.500000  0.500000  0.250000      2.000000
  0.000000  0.250000  0.500000      2.000000
 -0.250000  0.250000 -0.250000      2.000000
  0.250000  0.500000  0.500000      2.000000
  0.500000  0.000000  0.250000      2.000000
 -0.250000  0.250000  0.000000      2.000000
  0.000000 -0.250000  0.250000      2.000000
  0.250000  0.000000 -0.250000      2.000000
  0.250000  0.250000  0.500000      2.000000
 -0.250000  0.500000 -0.250000      2.000000
  0.500000 -0.250000 -0.250000      2.000000
  0.500000  0.500000  0.000000      1.000000
  0.000000  0.500000  0.500000      1.000000
  0.500000  0.000000  0.500000      1.000000
 -0.250000  0.500000  0.250000      2.000000
  0.250000 -0.250000  0.500000      2.000000
  0.500000  0.250000 -0.250000      2.000000
 
 Following cartesian coordinates:
            Coordinates               Weight
  0.000000  0.000000  0.000000      1.000000
  0.099423 -0.057402 -0.040589      2.000000
  0.000000  0.114804 -0.040589      2.000000
  0.000000  0.000000  0.121768      2.000000
  0.099423  0.057402  0.040589      2.000000
  0.198847 -0.114804 -0.081179      1.000000
  0.000000  0.229608 -0.081179      1.000000
  0.000000  0.000000  0.243536      1.000000
  0.198847  0.114804  0.081179      1.000000
  0.099423  0.057402 -0.081179      2.000000
  0.000000  0.114804  0.081179      2.000000
  0.099423 -0.057402  0.081179      2.000000
  0.198847  0.000000 -0.121768      2.000000
  0.000000  0.229608  0.040589      2.000000
  0.099423 -0.057402  0.202947      2.000000
  0.099423  0.057402 -0.202947      2.000000
  0.198847  0.000000  0.121768      2.000000
  0.099423  0.172206 -0.121768      2.000000
  0.099423 -0.172206 -0.121768      2.000000
  0.198847  0.114804 -0.040589      2.000000
  0.000000  0.114804  0.202947      2.000000
 -0.099423  0.172206 -0.121768      2.000000
  0.099423  0.172206  0.121768      2.000000
  0.198847 -0.114804  0.040589      2.000000
 -0.099423  0.172206  0.000000      2.000000
  0.000000 -0.114804  0.162358      2.000000
  0.099423 -0.057402 -0.162358      2.000000
  0.099423  0.057402  0.162358      2.000000
 -0.099423  0.287010 -0.162358      2.000000
  0.198847 -0.229608 -0.162358      2.000000
  0.198847  0.114804 -0.162358      1.000000
  0.000000  0.229608  0.162358      1.000000
  0.198847 -0.114804  0.162358      1.000000
 -0.099423  0.287010  0.081179      2.000000
  0.099423 -0.172206  0.243536      2.000000
  0.198847  0.000000 -0.243536      2.000000
 


--------------------------------------------------------------------------------------------------------




 Dimension of arrays:
   k-points           NKPTS =     36   k-points in BZ     NKDIM =     36   number of bands    NBANDS=      8
   number of dos      NEDOS =    301   number of ions     NIONS =      2
   non local maximal  LDIM  =      4   non local SUM 2l+1 LMDIM =      8
   total plane-waves  NPLWV =   5832
   max r-space proj   IRMAX =      1   max aug-charges    IRDMAX=   5801
   dimension x,y,z NGX =    18 NGY =   18 NGZ =   18
   dimension x,y,z NGXF=    36 NGYF=   36 NGZF=   36
   support grid    NGXF=    36 NGYF=   36 NGZF=   36
   ions per type =               2
   NGX,Y,Z   is equivalent  to a cutoff of  11.55, 11.55, 11.55 a.u.
   NGXF,Y,Z  is equivalent  to a cutoff of  23.11, 23.11, 23.11 a.u.

 SYSTEM =  C                                       
 POSCAR =   C                                      

 Startparameter for this run:
   NWRITE =      2    write-flag & timer
   PREC   = normal    normal or accurate (medium, high low for compatibility)
   ISTART =      0    job   : 0-new  1-cont  2-samecut
   ICHARG =      2    charge: 1-file 2-atom 10-const
   ISPIN  =      1    spin polarized calculation?
   LNONCOLLINEAR =      F non collinear calculations
   LSORBIT =      F    spin-orbit coupling
   INIWAV =      1    electr: 0-lowe 1-rand  2-diag
   LASPH  =      F    aspherical Exc in radial PAW
 Electronic Relaxation 1
   ENCUT  =  800.0 eV  58.80 Ry    7.67 a.u.   5.97  5.97  5.97*2*pi/ulx,y,z
   ENINI  =  800.0     initial cutoff
   ENAUG  =  644.9 eV  augmentation charge cutoff
   NELM   =     60;   NELMIN=  2; NELMDL=  0     # of ELM steps 
   EDIFF  = 0.1E-05   stopping-criterion for ELM
   LREAL  =      F    real-space projection
   NLSPLINE    = F    spline interpolate recip. space projectors
   LCOMPAT=      F    compatible to vasp.4.4
   GGA_COMPAT  = T    GGA compatible to vasp.4.4-vasp.4.6
   LMAXPAW     = -100 max onsite density
   LMAXMIX     =    2 max onsite mixed and CHGCAR
   VOSKOWN=      0    Vosko Wilk Nusair interpolation
   ROPT   =    0.00000
 Ionic relaxation
   EDIFFG = 0.1E-04   stopping-criterion for IOM
   NSW    =      0    number of steps for IOM
   NBLOCK =      1;   KBLOCK =      1    inner block; outer block 
   IBRION =     -1    ionic relax: 0-MD 1-quasi-New 2-CG
   NFREE  =      0    steps in history (QN), initial steepest desc. (CG)
   ISIF   =      2    stress and relaxation
   IWAVPR =     10    prediction:  0-non 1-charg 2-wave 3-comb
   ISYM   =      0    0-nonsym 1-usesym 2-fastsym
   LCORR  =      T    Harris-Foulkes like correction to forces

   POTIM  = 0.5000    time-step for ionic-motion
   TEIN   =    0.0    initial temperature
   TEBEG  =    0.0;   TEEND  =   0.0 temperature during run
   SMASS  =  -3.00    Nose mass-parameter (am)
   estimated Nose-frequenzy (Omega)   =  0.10E-29 period in steps = 0.13E+47 mass=  -0.153E-27a.u.
   SCALEE = 1.0000    scale energy and forces
   NPACO  =    256;   APACO  = 10.0  distance and # of slots for P.C.
   PSTRESS=    0.0 pullay stress

  Mass of Ions in am
   POMASS =  12.01
  Ionic Valenz
   ZVAL   =   4.00
  Atomic Wigner-Seitz radii
   RWIGS  =  -1.00
  virtual crystal weights 
   VCA    =   1.00
   NELECT =       8.0000    total number of electrons
   NUPDOWN=      -1.0000    fix difference up-down

 DOS related values:
   EMIN   =  10.00;   EMAX   =-10.00  energy-range for DOS
   EFERMI =   0.00;   METHOD = LEGACY      
   ISMEAR =     1;   SIGMA  =   0.10  broadening in eV -4-tet -1-fermi 0-gaus

 Electronic relaxation 2 (details)
   IALGO  =     48    algorithm
   LDIAG  =      T    sub-space diagonalisation (order eigenvalues)
   LSUBROT=      F    optimize rotation matrix (better conditioning)
   TURBO    =      0    0=normal 1=particle mesh
   IRESTART =      0    0=no restart 2=restart with 2 vectors
   NREBOOT  =      0    no. of reboots
   NMIN     =      0    reboot dimension
   EREF     =   0.00    reference energy to select bands
   IMIX   =      4    mixing-type and parameters
     AMIX     =   0.20;   BMIX     =  1.00
     AMIX_MAG =   0.80;   BMIX_MAG =  1.00
     AMIN     =   0.10
     WC   =   100.;   INIMIX=   1;  MIXPRE=   1;  MAXMIX= -45

 Intra band minimization:
   WEIMIN = 0.0000     energy-eigenvalue tresh-hold
   EBREAK =  0.31E-07  absolut break condition
   DEPER  =   0.30     relativ break condition  

   TIME   =   0.40     timestep for ELM

  volume/ion in A,a.u.               =       6.14        41.45
  Fermi-wavevector in a.u.,A,eV,Ry     =   1.419017  2.681553 27.396821  2.013610
  Thomas-Fermi vector in A             =   2.540082

 Write flags
   LWAVE        =      F    write WAVECAR
   LDOWNSAMPLE  =      F    k-point downsampling of WAVECAR
   LCHARG       =      F    write CHGCAR
   LVTOT        =      F    write LOCPOT, total local potential
   LVHAR        =      F    write LOCPOT, Hartree potential only
   LELF         =      F    write electronic localiz. function (ELF)
   LORBIT       =      0    0 simple, 1 ext, 2 COOP (PROOUT), +10 PAW based schemes


 Dipole corrections
   LMONO  =      F    monopole corrections only (constant potential shift)
   LDIPOL =      F    correct potential (dipole corrections)
   IDIPOL =      0    1-x, 2-y, 3-z, 4-all directions 
   EPSILON=  1.0000000 bulk dielectric constant

 Exchange correlation treatment:
   GGA     =    --    GGA type
   LEXCH   =     8    internal setting for exchange type
   LIBXC   =     F    Libxc                    
   VOSKOWN =     0    Vosko Wilk Nusair interpolation
   LHFCALC =     F    Hartree Fock is set to
   LHFONE  =     F    Hartree Fock one center treatment
   AEXX    =    0.0000 exact exchange contribution

 Linear response parameters
   LEPSILON=     F    determine dielectric tensor
   LRPA    =     F    only Hartree local field effects (RPA)
   LNABLA  =     F    use nabla operator in PAW spheres
   LVEL    =     F    velocity operator in full k-point grid
   CSHIFT  =0.1000    complex shift for real part using Kramers Kronig
   OMEGAMAX=  -1.0    maximum frequency
   DEG_THRESHOLD= 0.2000000E-02 threshold for treating states as degnerate
   RTIME   =   -0.100 relaxation time in fs
  (WPLASMAI=    0.000 imaginary part of plasma frequency in eV, 0.658/RTIME)
   DFIELD  = 0.0000000 0.0000000 0.0000000 field for delta impulse in time

  Optional k-point grid parameters
   LKPOINTS_OPT  =     F    use optional k-point grid
   KPOINTS_OPT_MODE=     1    mode for optional k-point grid

 Orbital magnetization related:
   ORBITALMAG=     F  switch on orbital magnetization
   LCHIMAG   =     F  perturbation theory with respect to B field
   DQ        =  0.001000  dq finite difference perturbation B field
   LLRAUG    =     F  two centre corrections for induced B field
   LBONE     =     F  B-component reconstruction in AE one-centre
   LVGVCALC  =     T  calculate vGv susceptibility
   LVGVAPPL  =     F  apply vGv susceptibility instead of pGv for G=0

 Random number generation:
   RANDOM_GENERATOR = DEFAULT
   PCG_SEED         = not used


--------------------------------------------------------------------------------------------------------


 Static calculation
 charge density and potential will be updated during run
 non-spin polarized calculation
 RMM-DIIS sequential band-by-band
 perform sub-space diagonalisation
    before iterative eigenvector-optimisation
 modified Broyden-mixing scheme, WC =      100.0
 initial mixing is a Kerker type mixing with AMIX =  0.2000 and BMIX =      1.0000
 Hartree-type preconditioning will be used
 using additional bands            4
 reciprocal scheme for non local part
 use partial core corrections
 calculate Harris-corrections to forces   (improved forces if not selfconsistent)
 use gradient corrections 
 use of overlap-Matrix (Vanderbilt PP)
 Methfessel and Paxton  Order N= 1 SIGMA  =   0.10


--------------------------------------------------------------------------------------------------------


  energy-cutoff  :      800.00
  volume of cell :       12.28
      direct lattice vectors                 reciprocal lattice vectors
     2.589935000  0.000000000  0.000000000     0.386110076 -0.222920756 -0.157628779
     1.294967500  2.242949504  0.000000000     0.000000000  0.445841513 -0.157628779
     1.294967500  0.747649835  2.114673072     0.000000000  0.000000000  0.472886336

  length of vectors
     2.589935000  2.589935000  2.589935000     0.472886336  0.472886336  0.472886336



 k-points in units of 2pi/SCALE and weight: C fcc         # System label            
   0.00000000  0.00000000  0.00000000       0.016
   0.09942334 -0.05740209 -0.04058941       0.031
   0.00000000  0.11480419 -0.04058941       0.031
   0.00000000  0.00000000  0.12176823       0.031
   0.09942334  0.05740209  0.04058941       0.031
   0.19884669 -0.11480419 -0.08117882       0.016
   0.00000000  0.22960838 -0.08117882       0.016
   0.00000000  0.00000000  0.24353646       0.016
   0.19884669  0.11480419  0.08117882       0.016
   0.09942334  0.05740209 -0.08117882       0.031
   0.00000000  0.11480419  0.08117882       0.031
   0.09942334 -0.05740209  0.08117882       0.031
   0.19884669  0.00000000 -0.12176823       0.031
   0.00000000  0.22960838  0.04058941       0.031
   0.09942334 -0.05740209  0.20294705       0.031
   0.09942334  0.05740209 -0.20294705       0.031
   0.19884669  0.00000000  0.12176823       0.031
   0.09942334  0.17220628 -0.12176823       0.031
   0.09942334 -0.17220628 -0.12176823       0.031
   0.19884669  0.11480419 -0.04058941       0.031
   0.00000000  0.11480419  0.20294705       0.031
  -0.09942334  0.17220628 -0.12176823       0.031
   0.09942334  0.17220628  0.12176823       0.031
   0.19884669 -0.11480419  0.04058941       0.031
  -0.09942334  0.17220628  0.00000000       0.031
   0.00000000 -0.11480419  0.16235764       0.031
   0.09942334 -0.05740209 -0.16235764       0.031
   0.09942334  0.05740209  0.16235764       0.031
  -0.09942334  0.28701047 -0.16235764       0.031
   0.19884669 -0.22960838 -0.16235764       0.031
   0.19884669  0.11480419 -0.16235764       0.016
   0.00000000  0.22960838  0.16235764       0.016
   0.19884669 -0.11480419  0.16235764       0.016
  -0.09942334  0.28701047  0.08117882       0.031
   0.09942334 -0.17220628  0.24353646       0.031
   0.19884669  0.00000000 -0.24353646       0.031

 k-points in reciprocal lattice and weights: C fcc         # System label            
   0.00000000  0.00000000  0.00000000       0.016
   0.25000000  0.00000000  0.00000000       0.031
   0.00000000  0.25000000  0.00000000       0.031
   0.00000000  0.00000000  0.25000000       0.031
   0.25000000  0.25000000  0.25000000       0.031
   0.50000000  0.00000000  0.00000000       0.016
   0.00000000  0.50000000  0.00000000       0.016
   0.00000000  0.00000000  0.50000000       0.016
   0.50000000  0.50000000  0.50000000       0.016
   0.25000000  0.25000000  0.00000000       0.031
   0.00000000  0.25000000  0.25000000       0.031
   0.25000000  0.00000000  0.25000000       0.031
   0.50000000  0.25000000  0.00000000       0.031
   0.00000000  0.50000000  0.25000000       0.031
   0.25000000  0.00000000  0.50000000       0.031
   0.25000000  0.25000000 -0.25000000       0.031
   0.50000000  0.25000000  0.50000000       0.031
   0.25000000  0.50000000  0.00000000       0.031
   0.25000000 -0.25000000 -0.25000000       0.031
   0.50000000  0.50000000  0.25000000       0.031
   0.00000000  0.25000000  0.50000000       0.031
  -0.25000000  0.25000000 -0.25000000       0.031
   0.25000000  0.50000000  0.50000000       0.031
   0.50000000  0.00000000  0.25000000       0.031
  -0.25000000  0.25000000  0.00000000       0.031
   0.00000000 -0.25000000  0.25000000       0.031
   0.25000000  0.00000000 -0.25000000       0.031
   0.25000000  0.25000000  0.50000000       0.031
  -0.25000000  0.50000000 -0.25000000       0.031
   0.50000000 -0.25000000 -0.25000000       0.031
   0.50000000  0.50000000  0.00000000       0.016
   0.00000000  0.50000000  0.50000000       0.016
   0.50000000  0.00000000  0.50000000       0.016
  -0.25000000  0.50000000  0.25000000       0.031
   0.25000000 -0.25000000  0.50000000       0.031
   0.50000000  0.25000000 -0.25000000       0.031

 position of ions in fractional coordinates (direct lattice) 
   0.00000000  0.00000000  0.00000000
   0.25000000  0.25000000  0.25000000

 position of ions in cartesian coordinates  (Angst):
   0.00000000  0.00000000  0.00000000
   1.29496750  0.74764983  0.52866827



--------------------------------------------------------------------------------------------------------


 k-point   1 :   0.0000 0.0000 0.0000  plane waves:     609
 k-point   2 :   0.2500 0.0000 0.0000  plane waves:     631
 k-point   3 :   0.0000 0.2500 0.0000  plane waves:     631
 k-point   4 :   0.0000 0.0000 0.2500  plane waves:     631
 k-point   5 :   0.2500 0.2500 0.2500  plane waves:     631
 k-point   6 :   0.5000 0.0000 0.0000  plane waves:     628
 k-point   7 :   0.0000 0.5000 0.0000  plane waves:     628
 k-point   8 :   0.0000 0.0000 0.5000  plane waves:     628
 k-point   9 :   0.5000 0.5000 0.5000  plane waves:     628
 k-point  10 :   0.2500 0.2500 0.0000  plane waves:     632
 k-point  11 :   0.0000 0.2500 0.2500  plane waves:     632
 k-point  12 :   0.2500 0.0000 0.2500  plane waves:     632
 k-point  13 :   0.5000 0.2500 0.0000  plane waves:     637
 k-point  14 :   0.0000 0.5000 0.2500  plane waves:     637
 k-point  15 :   0.2500 0.0000 0.5000  plane waves:     637
 k-point  16 :   0.2500 0.2500-0.2500  plane waves:     637
 k-point  17 :   0.5000 0.2500 0.5000  plane waves:     637
 k-point  18 :   0.2500 0.5000 0.0000  plane waves:     637
 k-point  19 :   0.2500-0.2500-0.2500  plane waves:     637
 k-point  20 :   0.5000 0.5000 0.2500  plane waves:     637
 k-point  21 :   0.0000 0.2500 0.5000  plane waves:     637
 k-point  22 :  -0.2500 0.2500-0.2500  plane waves:     637
 k-point  23 :   0.2500 0.5000 0.5000  plane waves:     637
 k-point  24 :   0.5000 0.0000 0.2500  plane waves:     637
 k-point  25 :  -0.2500 0.2500 0.0000  plane waves:     624
 k-point  26 :   0.0000-0.2500 0.2500  plane waves:     624
 k-point  27 :   0.2500 0.0000-0.2500  plane waves:     624
 k-point  28 :   0.2500 0.2500 0.5000  plane waves:     624
 k-point  29 :  -0.2500 0.5000-0.2500  plane waves:     624
 k-point  30 :   0.5000-0.2500-0.2500  plane waves:     624
 k-point  31 :   0.5000 0.5000 0.0000  plane waves:     636
 k-point  32 :   0.0000 0.5000 0.5000  plane waves:     636
 k-point  33 :   0.5000 0.0000 0.5000  plane waves:     636
 k-point  34 :  -0.2500 0.5000 0.2500  plane waves:     648
 k-point  35 :   0.2500-0.2500 0.5000  plane waves:     648
 k-point  36 :   0.5000 0.2500-0.2500  plane waves:     648

 maximum and minimum number of plane-waves per node :       648      609

 maximum number of plane-waves:       648
 maximum index in each direction: 
   IXMAX=    6   IYMAX=    6   IZMAX=    6
   IXMIN=   -6   IYMIN=   -6   IZMIN=   -6


 serial   3D FFT for wavefunctions
 parallel 3D FFT for charge:
    minimum data exchange during FFTs selected (reduces bandwidth)


 total amount of memory used by VASP MPI-rank0    35295. kBytes
=======================================================================

   base      :      30000. kBytes
   nonl-proj :       1513. kBytes
   fftplans  :        848. kBytes
   grid      :       1399. kBytes
   one-center:          6. kBytes
   wavefun   :       1529. kBytes

     INWAV:  cpu time      0.0000: real time      0.0000
 Broyden mixing: mesh for mixing (old mesh)
   NGX = 11   NGY = 11   NGZ = 11
  (NGX  = 36   NGY  = 36   NGZ  = 36)
  gives a total of   1331 points

 initial charge density was supplied:
 charge density of overlapping atoms calculated
 number of electron       8.0000000 magnetization 
 keeping initial charge density in first step


--------------------------------------------------------------------------------------------------------


 Maximum index for augmentation-charges         2716 (set IRDMAX)


--------------------------------------------------------------------------------------------------------


 First call to EWALD:  gamma=   0.768
 Maximum number of real-space cells 3x 3x 3
 Maximum number of reciprocal cells 3x 3x 3

    FEWALD:  cpu time      0.0005: real time      0.0005


--------------------------------------- Ionic step        1  -------------------------------------------




--------------------------------------- Iteration      1(   1)  ---------------------------------------


    POTLOK:  cpu time      0.0063: real time      0.0063
    SETDIJ:  cpu time      0.0008: real time      0.0008
    EDDIAG:  cpu time      0.0372: real time      0.0372
  RMM-DIIS:  cpu time      0.0554: real time      0.0554
    ORTHCH:  cpu time      0.0017: real time      0.0017
       DOS:  cpu time      0.0003: real time      0.0003
    --------------------------------------------
      LOOP:  cpu time      0.1017: real time      0.1017

 eigenvalue-minimisations  :   288
 total energy-change (2. order) : 0.5805876E+02  (-0.3356734E+03)
 number of electron       8.0000000 magnetization 
 augmentation part        8.0000000 magnetization 

 Free energy of the ion-electron system (eV)
  ---------------------------------------------------
  alpha Z        PSCENC =        26.74844880
  Ewald energy   TEWEN  =      -338.84641273
  -Hartree energ DENC   =       -19.40688224
  -exchange      EXHF   =         0.00000000
  -V(xc)+E(xc)   XCENC  =        26.91643053
  PAW double counting   =       217.04409276     -218.18290438
  entropy T*S    EENTRO =        -0.00175823
  eigenvalues    EBANDS =        69.47890331
  atomic energy  EATOM  =       294.30884690
  Solvation  Ediel_sol  =         0.00000000
  ---------------------------------------------------
  free energy    TOTEN  =        58.05876473 eV

  energy without entropy =       58.06052296  energy(sigma->0) =       58.05935081


--------------------------------------------------------------------------------------------------------




--------------------------------------- Iteration      1(   2)  ---------------------------------------


    EDDIAG:  cpu time      0.0378: real time      0.0378
  RMM-DIIS:  cpu time      0.0558: real time      0.0558
    ORTHCH:  cpu time      0.0017: real time      0.0017
       DOS:  cpu time      0.0002: real time      0.0002
    --------------------------------------------
      LOOP:  cpu time      0.0955: real time      0.0955

 eigenvalue-minimisations  :   288
 total energy-change (2. order) :-0.5636371E+02  (-0.5141401E+02)
 number of electron       8.0000000 magnetization 
 augmentation part        8.0000000 magnetization 

 Free energy of the ion-electron system (eV)
  ---------------------------------------------------
  alpha Z        PSCENC =        26.74844880
  Ewald energy   TEWEN  =      -338.84641273
  -Hartree energ DENC   =       -19.40688224
  -exchange      EXHF   =         0.00000000
  -V(xc)+E(xc)   XCENC  =        26.91643053
  PAW double counting   =       217.04409276     -218.18290438
  entropy T*S    EENTRO =        -0.00062090
  eigenvalues    EBANDS =        13.11405287
  atomic energy  EATOM  =       294.30884690
  Solvation  Ediel_sol  =         0.00000000
  ---------------------------------------------------
  free energy    TOTEN  =         1.69505161 eV

  energy without entropy =        1.69567251  energy(sigma->0) =        1.69525858


--------------------------------------------------------------------------------------------------------




--------------------------------------- Iteration      1(   3)  ---------------------------------------


    EDDIAG:  cpu time      0.0372: real time      0.0372
  RMM-DIIS:  cpu time      0.0561: real time      0.0561
    ORTHCH:  cpu time      0.0017: real time      0.0017
       DOS:  cpu time      0.0002: real time      0.0002
    --------------------------------------------
      LOOP:  cpu time      0.0952: real time      0.0952

 eigenvalue-minimisations  :   288
 total energy-change (2. order) :-0.1526366E+02  (-0.1053075E+02)
 number of electron       8.0000000 magnetization 
 augmentation part        8.0000000 magnetization 

 Free energy of the ion-electron system (eV)
  ---------------------------------------------------
  alpha Z        PSCENC =        26.74844880
  Ewald energy   TEWEN  =      -338.84641273
  -Hartree energ DENC   =       -19.40688224
  -exchange      EXHF   =         0.00000000
  -V(xc)+E(xc)   XCENC  =        26.91643053
  PAW double counting   =       217.04409276     -218.18290438
  entropy T*S    EENTRO =        -0.00085117
  eigenvalues    EBANDS =        -2.14938090
  atomic energy  EATOM  =       294.30884690
  Solvation  Ediel_sol  =         0.00000000
  ---------------------------------------------------
  free energy    TOTEN  =       -13.56861243 eV

  energy without entropy =      -13.56776126  energy(sigma->0) =      -13.56832870


--------------------------------------------------------------------------------------------------------




--------------------------------------- Iteration      1(   4)  ---------------------------------------


    EDDIAG:  cpu time      0.0387: real time      0.0387
  RMM-DIIS:  cpu time      0.0562: real time      0.0562
    ORTHCH:  cpu time      0.0017: real time      0.0017
       DOS:  cpu time      0.0002: real time      0.0002
    --------------------------------------------
      LOOP:  cpu time      0.0968: real time      0.0968

 eigenvalue-minimisations  :   288
 total energy-change (2. order) :-0.3937370E+01  (-0.2051574E+01)
 number of electron       8.0000000 magnetization 
 augmentation part        8.0000000 magnetization 

 Free energy of the ion-electron system (eV)
  ---------------------------------------------------
  alpha Z        PSCENC =        26.74844880
  Ewald energy   TEWEN  =      -338.84641273
  -Hartree energ DENC   =       -19.40688224
  -exchange      EXHF   =         0.00000000
  -V(xc)+E(xc)   XCENC  =        26.91643053
  PAW double counting   =       217.04409276     -218.18290438
  entropy T*S    EENTRO =         0.00009059
  eigenvalues    EBANDS =        -6.08769309
  atomic energy  EATOM  =       294.30884690
  Solvation  Ediel_sol  =         0.00000000
  ---------------------------------------------------
  free energy    TOTEN  =       -17.50598285 eV

  energy without entropy =      -17.50607344  energy(sigma->0) =      -17.50601305


--------------------------------------------------------------------------------------------------------




--------------------------------------- Iteration      1(   5)  ---------------------------------------


    EDDIAG:  cpu time      0.0372: real time      0.0372
  RMM-DIIS:  cpu time      0.0563: real time      0.0563
    ORTHCH:  cpu time      0.0017: real time      0.0017
       DOS:  cpu time      0.0003: real time      0.0003
    --------------------------------------------
      LOOP:  cpu time      0.0954: real time      0.0954

 eigenvalue-minimisations  :   288
 total energy-change (2. order) :-0.7467215E+00  (-0.5467558E+00)
 number of electron       8.0000000 magnetization 
 augmentation part        8.0000000 magnetization 

 Free energy of the ion-electron system (eV)
  ---------------------------------------------------
  alpha Z        PSCENC =        26.74844880
  Ewald energy   TEWEN  =      -338.84641273
  -Hartree energ DENC   =       -19.40688224
  -exchange      EXHF   =         0.00000000
  -V(xc)+E(xc)   XCENC  =        26.91643053
  PAW double counting   =       217.04409276     -218.18290438
  entropy T*S    EENTRO =         0.00009059
  eigenvalues    EBANDS =        -6.83441458
  atomic energy  EATOM  =       294.30884690
  Solvation  Ediel_sol  =         0.00000000
  ---------------------------------------------------
  free energy    TOTEN  =       -18.25270434 eV

  energy without entropy =      -18.25279493  energy(sigma->0) =      -18.25273454


--------------------------------------------------------------------------------------------------------




--------------------------------------- Iteration      1(   6)  ---------------------------------------


    EDDIAG:  cpu time      0.0373: real time      0.0373
  RMM-DIIS:  cpu time      0.0562: real time      0.0562
    ORTHCH:  cpu time      0.0017: real time      0.0017
       DOS:  cpu time      0.0002: real time      0.0002
    --------------------------------------------
      LOOP:  cpu time      0.0954: real time      0.0954

 eigenvalue-minimisations  :   288
 total energy-change (2. order) :-0.1832348E+00  (-0.1390854E+00)
 number of electron       8.0000000 magnetization 
 augmentation part        8.0000000 magnetization 

 Free energy of the ion-electron system (eV)
  ---------------------------------------------------
  alpha Z        PSCENC =        26.74844880
  Ewald energy   TEWEN  =      -338.84641273
  -Hartree energ DENC   =       -19.40688224
  -exchange      EXHF   =         0.00000000
  -V(xc)+E(xc)   XCENC  =        26.91643053
  PAW double counting   =       217.04409276     -218.18290438
  entropy T*S    EENTRO =         0.00009059
  eigenvalues    EBANDS =        -7.01764939
  atomic energy  EATOM  =       294.30884690
  Solvation  Ediel_sol  =         0.00000000
  ---------------------------------------------------
  free energy    TOTEN  =       -18.43593915 eV

  energy without entropy =      -18.43602974  energy(sigma->0) =      -18.43596935


--------------------------------------------------------------------------------------------------------




--------------------------------------- Iteration      1(   7)  ---------------------------------------


    EDDIAG:  cpu time      0.0376: real time      0.0376
  RMM-DIIS:  cpu time      0.0565: real time      0.0565
    ORTHCH:  cpu time      0.0018: real time      0.0018
       DOS:  cpu time      0.0002: real time      0.0002
    --------------------------------------------
      LOOP:  cpu time      0.0961: real time      0.0961

 eigenvalue-minimisations  :   288
 total energy-change (2. order) :-0.5537265E-01  (-0.3693420E-01)
 number of electron       8.0000000 magnetization 
 augmentation part        8.0000000 magnetization 

 Free energy of the ion-electron system (eV)
  ---------------------------------------------------
  alpha Z        PSCENC =        26.74844880
  Ewald energy   TEWEN  =      -338.84641273
  -Hartree energ DENC   =       -19.40688224
  -exchange      EXHF   =         0.00000000
  -V(xc)+E(xc)   XCENC  =        26.91643053
  PAW double counting   =       217.04409276     -218.18290438
  entropy T*S    EENTRO =         0.00026133
  eigenvalues    EBANDS =        -7.07319278
  atomic energy  EATOM  =       294.30884690
  Solvation  Ediel_sol  =         0.00000000
  ---------------------------------------------------
  free energy    TOTEN  =       -18.49131180 eV

  energy without entropy =      -18.49157313  energy(sigma->0) =      -18.49139891


--------------------------------------------------------------------------------------------------------




--------------------------------------- Iteration      1(   8)  ---------------------------------------


    EDDIAG:  cpu time      0.0379: real time      0.0379
  RMM-DIIS:  cpu time      0.0565: real time      0.0565
    ORTHCH:  cpu time      0.0017: real time      0.0017
       DOS:  cpu time      0.0002: real time      0.0002
    --------------------------------------------
      LOOP:  cpu time      0.0964: real time      0.0964

 eigenvalue-minimisations  :   288
 total energy-change (2. order) :-0.1043749E-01  (-0.7867954E-02)
 number of electron       8.0000000 magnetization 
 augmentation part        8.0000000 magnetization 

 Free energy of the ion-electron system (eV)
  ---------------------------------------------------
  alpha Z        PSCENC =        26.74844880
  Ewald energy   TEWEN  =      -338.84641273
  -Hartree energ DENC   =       -19.40688224
  -exchange      EXHF   =         0.00000000
  -V(xc)+E(xc)   XCENC  =        26.91643053
  PAW double counting   =       217.04409276     -218.18290438
  entropy T*S    EENTRO =         0.00027411
  eigenvalues    EBANDS =        -7.08364304
  atomic energy  EATOM  =       294.30884690
  Solvation  Ediel_sol  =         0.00000000
  ---------------------------------------------------
  free energy    TOTEN  =       -18.50174928 eV

  energy without entropy =      -18.50202340  energy(sigma->0) =      -18.50184065


--------------------------------------------------------------------------------------------------------




--------------------------------------- Iteration      1(   9)  ---------------------------------------


    EDDIAG:  cpu time      0.0374: real time      0.0374
  RMM-DIIS:  cpu time      0.1186: real time      0.1186
    ORTHCH:  cpu time      0.0018: real time      0.0018
       DOS:  cpu time      0.0002: real time      0.0002
    --------------------------------------------
      LOOP:  cpu time      0.1579: real time      0.1579

 eigenvalue-minimisations  :   722
 total energy-change (2. order) :-0.1962772E-02  (-0.1652016E-02)
 number of electron       8.0000000 magnetization 
 augmentation part        8.0000000 magnetization 

 Free energy of the ion-electron system (eV)
  ---------------------------------------------------
  alpha Z        PSCENC =        26.74844880
  Ewald energy   TEWEN  =      -338.84641273
  -Hartree energ DENC   =       -19.40688224
  -exchange      EXHF   =         0.00000000
  -V(xc)+E(xc)   XCENC  =        26.91643053
  PAW double counting   =       217.04409276     -218.18290438
  entropy T*S    EENTRO =         0.00027183
  eigenvalues    EBANDS =        -7.08560353
  atomic energy  EATOM  =       294.30884690
  Solvation  Ediel_sol  =         0.00000000
  ---------------------------------------------------
  free energy    TOTEN  =       -18.50371206 eV

  energy without entropy =      -18.50398389  energy(sigma->0) =      -18.50380267


--------------------------------------------------------------------------------------------------------




--------------------------------------- Iteration      1(  10)  ---------------------------------------


    EDDIAG:  cpu time      0.0375: real time      0.0375
  RMM-DIIS:  cpu time      0.1097: real time      0.1097
    ORTHCH:  cpu time      0.0017: real time      0.0017
       DOS:  cpu time      0.0003: real time      0.0003
    --------------------------------------------
      LOOP:  cpu time      0.1491: real time      0.1491

 eigenvalue-minimisations  :   665
 total energy-change (2. order) :-0.5187897E-03  (-0.4284908E-03)
 number of electron       8.0000000 magnetization 
 augmentation part        8.0000000 magnetization 

 Free energy of the ion-electron system (eV)
  ---------------------------------------------------
  alpha Z        PSCENC =        26.74844880
  Ewald energy   TEWEN  =      -338.84641273
  -Hartree energ DENC   =       -19.40688224
  -exchange      EXHF   =         0.00000000
  -V(xc)+E(xc)   XCENC  =        26.91643053
  PAW double counting   =       217.04409276     -218.18290438
  entropy T*S    EENTRO =         0.00027178
  eigenvalues    EBANDS =        -7.08612227
  atomic energy  EATOM  =       294.30884690
  Solvation  Ediel_sol  =         0.00000000
  ---------------------------------------------------
  free energy    TOTEN  =       -18.50423085 eV

  energy without entropy =      -18.50450262  energy(sigma->0) =      -18.50432144


--------------------------------------------------------------------------------------------------------




--------------------------------------- Iteration      1(  11)  ---------------------------------------


    EDDIAG:  cpu time      0.0371: real time      0.0371
  RMM-DIIS:  cpu time      0.1072: real time      0.1072
    ORTHCH:  cpu time      0.0018: real time      0.0018
       DOS:  cpu time      0.0002: real time      0.0002
    --------------------------------------------
      LOOP:  cpu time      0.1464: real time      0.1464

 eigenvalue-minimisations  :   636
 total energy-change (2. order) :-0.5967836E-04  (-0.5624173E-04)
 number of electron       8.0000000 magnetization 
 augmentation part        8.0000000 magnetization 

 Free energy of the ion-electron system (eV)
  ---------------------------------------------------
  alpha Z        PSCENC =        26.74844880
  Ewald energy   TEWEN  =      -338.84641273
  -Hartree energ DENC   =       -19.40688224
  -exchange      EXHF   =         0.00000000
  -V(xc)+E(xc)   XCENC  =        26.91643053
  PAW double counting   =       217.04409276     -218.18290438
  entropy T*S    EENTRO =         0.00027178
  eigenvalues    EBANDS =        -7.08618195
  atomic energy  EATOM  =       294.30884690
  Solvation  Ediel_sol  =         0.00000000
  ---------------------------------------------------
  free energy    TOTEN  =       -18.50429052 eV

  energy without entropy =      -18.50456230  energy(sigma->0) =      -18.50438112


--------------------------------------------------------------------------------------------------------




--------------------------------------- Iteration      1(  12)  ---------------------------------------


    EDDIAG:  cpu time      0.0372: real time      0.0372
  RMM-DIIS:  cpu time      0.1039: real time      0.1039
    ORTHCH:  cpu time      0.0017: real time      0.0017
       DOS:  cpu time      0.0002: real time      0.0002
    CHARGE:  cpu time      0.0086: real time      0.0086
    MIXING:  cpu time      0.0002: real time      0.0002
    --------------------------------------------
      LOOP:  cpu time      0.1519: real time      0.1519

 eigenvalue-minimisations  :   616
 total energy-change (2. order) :-0.6602289E-05  (-0.6502751E-05)
 number of electron       7.9999997 magnetization 
 augmentation part        0.1875061 magnetization 

 Broyden mixing:
  rms(total) = 0.50517E+00    rms(broyden)= 0.50516E+00
  rms(prec ) = 0.16750E+01
  weight for this iteration     100.00

 Free energy of the ion-electron system (eV)
  ---------------------------------------------------
  alpha Z        PSCENC =        26.74844880
  Ewald energy   TEWEN  =      -338.84641273
  -Hartree energ DENC   =       -19.40688224
  -exchange      EXHF   =         0.00000000
  -V(xc)+E(xc)   XCENC  =        26.91643053
  PAW double counting   =       217.04409276     -218.18290438
  entropy T*S    EENTRO =         0.00027178
  eigenvalues    EBANDS =        -7.08618855
  atomic energy  EATOM  =       294.30884690
  Solvation  Ediel_sol  =         0.00000000
  ---------------------------------------------------
  free energy    TOTEN  =       -18.50429713 eV

  energy without entropy =      -18.50456890  energy(sigma->0) =      -18.50438772


--------------------------------------------------------------------------------------------------------




--------------------------------------- Iteration      1(  13)  ---------------------------------------


    POTLOK:  cpu time      0.0062: real time      0.0062
    SETDIJ:  cpu time      0.0008: real time      0.0008
    EDDIAG:  cpu time      0.0375: real time      0.0375
  RMM-DIIS:  cpu time      0.1646: real time      0.1646
    ORTHCH:  cpu time      0.0018: real time      0.0018
       DOS:  cpu time      0.0002: real time      0.0002
    CHARGE:  cpu time      0.0088: real time      0.0088
    MIXING:  cpu time      0.0002: real time      0.0002
    --------------------------------------------
      LOOP:  cpu time      0.2201: real time      0.2201

 eigenvalue-minimisations  :  1022
 total energy-change (2. order) : 0.2253581E+00  (-0.6076420E-02)
 number of electron       7.9999997 magnetization 
 augmentation part        0.1857188 magnetization 

 Broyden mixing:
  rms(total) = 0.40393E+00    rms(broyden)= 0.40393E+00
  rms(prec ) = 0.12965E+01
  weight for this iteration     100.00

 eigenvalues of (default mixing * dielectric matrix)
  average eigenvalue GAMMA=   4.7055
  4.7055

 Free energy of the ion-electron system (eV)
  ---------------------------------------------------
  alpha Z        PSCENC =        26.74844880
  Ewald energy   TEWEN  =      -338.84641273
  -Hartree energ DENC   =       -21.16310430
  -exchange      EXHF   =         0.00000000
  -V(xc)+E(xc)   XCENC  =        27.07214850
  PAW double counting   =       281.98531232     -283.17351960
  entropy T*S    EENTRO =         0.00027178
  eigenvalues    EBANDS =        -5.21093065
  atomic energy  EATOM  =       294.30884690
  Solvation  Ediel_sol  =         0.00000000
  ---------------------------------------------------
  free energy    TOTEN  =       -18.27893900 eV

  energy without entropy =      -18.27921077  energy(sigma->0) =      -18.27902959


--------------------------------------------------------------------------------------------------------




--------------------------------------- Iteration      1(  14)  ---------------------------------------


    POTLOK:  cpu time      0.0061: real time      0.0061
    SETDIJ:  cpu time      0.0008: real time      0.0008
    EDDIAG:  cpu time      0.0379: real time      0.0379
  RMM-DIIS:  cpu time      0.1795: real time      0.1796
    ORTHCH:  cpu time      0.0018: real time      0.0018
       DOS:  cpu time      0.0002: real time      0.0002
    CHARGE:  cpu time      0.0087: real time      0.0087
    MIXING:  cpu time      0.0002: real time      0.0002
    --------------------------------------------
      LOOP:  cpu time      0.2353: real time      0.2353

 eigenvalue-minimisations  :  1151
 total energy-change (2. order) : 0.2912111E+00  (-0.6081508E-01)
 number of electron       7.9999997 magnetization 
 augmentation part        0.1792909 magnetization 

 Broyden mixing:
  rms(total) = 0.92343E-01    rms(broyden)= 0.92341E-01
  rms(prec ) = 0.14700E+00
  weight for this iteration     100.00

 eigenvalues of (default mixing * dielectric matrix)
  average eigenvalue GAMMA=   4.1553
  3.4589  4.8517

 Free energy of the ion-electron system (eV)
  ---------------------------------------------------
  alpha Z        PSCENC =        26.74844880
  Ewald energy   TEWEN  =      -338.84641273
  -Hartree energ DENC   =       -27.68508551
  -exchange      EXHF   =         0.00000000
  -V(xc)+E(xc)   XCENC  =        27.66452827
  PAW double counting   =       590.63995939     -591.98313297
  entropy T*S    EENTRO =         0.00027178
  eigenvalues    EBANDS =         1.16484814
  atomic energy  EATOM  =       294.30884690
  Solvation  Ediel_sol  =         0.00000000
  ---------------------------------------------------
  free energy    TOTEN  =       -17.98772793 eV

  energy without entropy =      -17.98799971  energy(sigma->0) =      -17.98781852


--------------------------------------------------------------------------------------------------------




--------------------------------------- Iteration      1(  15)  ---------------------------------------


    POTLOK:  cpu time      0.0060: real time      0.0060
    SETDIJ:  cpu time      0.0008: real time      0.0008
    EDDIAG:  cpu time      0.0376: real time      0.0376
  RMM-DIIS:  cpu time      0.1122: real time      0.1122
    ORTHCH:  cpu time      0.0018: real time      0.0018
       DOS:  cpu time      0.0002: real time      0.0002
    CHARGE:  cpu time      0.0087: real time      0.0087
    MIXING:  cpu time      0.0002: real time      0.0002
    --------------------------------------------
      LOOP:  cpu time      0.1676: real time      0.1676

 eigenvalue-minimisations  :   659
 total energy-change (2. order) :-0.1683977E-02  (-0.1801222E-03)
 number of electron       7.9999997 magnetization 
 augmentation part        0.1792805 magnetization 

 Broyden mixing:
  rms(total) = 0.17531E-01    rms(broyden)= 0.17531E-01
  rms(prec ) = 0.40136E-01
  weight for this iteration     100.00

 eigenvalues of (default mixing * dielectric matrix)
  average eigenvalue GAMMA=   3.5283
  5.0160  4.2802  1.2887

 Free energy of the ion-electron system (eV)
  ---------------------------------------------------
  alpha Z        PSCENC =        26.74844880
  Ewald energy   TEWEN  =      -338.84641273
  -Hartree energ DENC   =       -27.86703458
  -exchange      EXHF   =         0.00000000
  -V(xc)+E(xc)   XCENC  =        27.68668777
  PAW double counting   =       671.13898538     -672.45256605
  entropy T*S    EENTRO =         0.00027178
  eigenvalues    EBANDS =         1.29336083
  atomic energy  EATOM  =       294.30884690
  Solvation  Ediel_sol  =         0.00000000
  ---------------------------------------------------
  free energy    TOTEN  =       -17.98941191 eV

  energy without entropy =      -17.98968368  energy(sigma->0) =      -17.98950250


--------------------------------------------------------------------------------------------------------




--------------------------------------- Iteration      1(  16)  ---------------------------------------


    POTLOK:  cpu time      0.0061: real time      0.0061
    SETDIJ:  cpu time      0.0008: real time      0.0008
    EDDIAG:  cpu time      0.0377: real time      0.0377
  RMM-DIIS:  cpu time      0.0992: real time      0.0992
    ORTHCH:  cpu time      0.0017: real time      0.0017
       DOS:  cpu time      0.0003: real time      0.0003
    CHARGE:  cpu time      0.0088: real time      0.0088
    MIXING:  cpu time      0.0002: real time      0.0002
    --------------------------------------------
      LOOP:  cpu time      0.1548: real time      0.1548

 eigenvalue-minimisations  :   603
 total energy-change (2. order) :-0.1674401E-04  (-0.8753580E-04)
 number of electron       7.9999997 magnetization 
 augmentation part        0.1794735 magnetization 

 Broyden mixing:
  rms(total) = 0.61709E-02    rms(broyden)= 0.61709E-02
  rms(prec ) = 0.87413E-02
  weight for this iteration     100.00

 eigenvalues of (default mixing * dielectric matrix)
  average eigenvalue GAMMA=   4.1438
  0.9982  5.8019  5.8019  3.9734

 Free energy of the ion-electron system (eV)
  ---------------------------------------------------
  alpha Z        PSCENC =        26.74844880
  Ewald energy   TEWEN  =      -338.84641273
  -Hartree energ DENC   =       -27.74856172
  -exchange      EXHF   =         0.00000000
  -V(xc)+E(xc)   XCENC  =        27.67748164
  PAW double counting   =       685.49071406     -686.79111088
  entropy T*S    EENTRO =         0.00027178
  eigenvalues    EBANDS =         1.17089350
  atomic energy  EATOM  =       294.30884690
  Solvation  Ediel_sol  =         0.00000000
  ---------------------------------------------------
  free energy    TOTEN  =       -17.98942865 eV

  energy without entropy =      -17.98970043  energy(sigma->0) =      -17.98951924


--------------------------------------------------------------------------------------------------------




--------------------------------------- Iteration      1(  17)  ---------------------------------------


    POTLOK:  cpu time      0.0061: real time      0.0061
    SETDIJ:  cpu time      0.0008: real time      0.0008
    EDDIAG:  cpu time      0.0376: real time      0.0376
  RMM-DIIS:  cpu time      0.0994: real time      0.0994
    ORTHCH:  cpu time      0.0017: real time      0.0017
       DOS:  cpu time      0.0002: real time      0.0002
    CHARGE:  cpu time      0.0086: real time      0.0086
    MIXING:  cpu time      0.0002: real time      0.0002
    --------------------------------------------
      LOOP:  cpu time      0.1546: real time      0.1546

 eigenvalue-minimisations  :   601
 total energy-change (2. order) :-0.6835949E-04  (-0.1038463E-04)
 number of electron       7.9999997 magnetization 
 augmentation part        0.1795441 magnetization 

 Broyden mixing:
  rms(total) = 0.18959E-02    rms(broyden)= 0.18959E-02
  rms(prec ) = 0.56218E-02
  weight for this iteration     100.00

 eigenvalues of (default mixing * dielectric matrix)
  average eigenvalue GAMMA=   3.4080
  5.7300  5.0802  4.1124  0.9898  1.1277

 Free energy of the ion-electron system (eV)
  ---------------------------------------------------
  alpha Z        PSCENC =        26.74844880
  Ewald energy   TEWEN  =      -338.84641273
  -Hartree energ DENC   =       -27.73290470
  -exchange      EXHF   =         0.00000000
  -V(xc)+E(xc)   XCENC  =        27.67585657
  PAW double counting   =       674.75888243     -676.05946893
  entropy T*S    EENTRO =         0.00027178
  eigenvalues    EBANDS =         1.15698287
  atomic energy  EATOM  =       294.30884690
  Solvation  Ediel_sol  =         0.00000000
  ---------------------------------------------------
  free energy    TOTEN  =       -17.98949701 eV

  energy without entropy =      -17.98976879  energy(sigma->0) =      -17.98958760


--------------------------------------------------------------------------------------------------------




--------------------------------------- Iteration      1(  18)  ---------------------------------------


    POTLOK:  cpu time      0.0063: real time      0.0063
    SETDIJ:  cpu time      0.0008: real time      0.0008
    EDDIAG:  cpu time      0.0378: real time      0.0378
  RMM-DIIS:  cpu time      0.1066: real time      0.1066
    ORTHCH:  cpu time      0.0017: real time      0.0017
       DOS:  cpu time      0.0003: real time      0.0003
    CHARGE:  cpu time      0.0090: real time      0.0090
    MIXING:  cpu time      0.0002: real time      0.0002
    --------------------------------------------
      LOOP:  cpu time      0.1627: real time      0.1627

 eigenvalue-minimisations  :   635
 total energy-change (2. order) : 0.2830398E-05  (-0.1010446E-05)
 number of electron       7.9999997 magnetization 
 augmentation part        0.1795542 magnetization 

 Broyden mixing:
  rms(total) = 0.61250E-03    rms(broyden)= 0.61247E-03
  rms(prec ) = 0.73185E-03
  weight for this iteration     100.00

 eigenvalues of (default mixing * dielectric matrix)
  average eigenvalue GAMMA=   2.9460
  5.7641  5.0821  4.1450  0.9878  1.2545  0.4426

 Free energy of the ion-electron system (eV)
  ---------------------------------------------------
  alpha Z        PSCENC =        26.74844880
  Ewald energy   TEWEN  =      -338.84641273
  -Hartree energ DENC   =       -27.76453789
  -exchange      EXHF   =         0.00000000
  -V(xc)+E(xc)   XCENC  =        27.67885953
  PAW double counting   =       677.16193795     -678.46279952
  entropy T*S    EENTRO =         0.00027178
  eigenvalues    EBANDS =         1.18589100
  atomic energy  EATOM  =       294.30884690
  Solvation  Ediel_sol  =         0.00000000
  ---------------------------------------------------
  free energy    TOTEN  =       -17.98949418 eV

  energy without entropy =      -17.98976596  energy(sigma->0) =      -17.98958477


--------------------------------------------------------------------------------------------------------




--------------------------------------- Iteration      1(  19)  ---------------------------------------


    POTLOK:  cpu time      0.0061: real time      0.0061
    SETDIJ:  cpu time      0.0008: real time      0.0008
    EDDIAG:  cpu time      0.0380: real time      0.0380
  RMM-DIIS:  cpu time      0.0827: real time      0.0827
    ORTHCH:  cpu time      0.0018: real time      0.0018
       DOS:  cpu time      0.0003: real time      0.0003
    --------------------------------------------
      LOOP:  cpu time      0.1295: real time      0.1295

 eigenvalue-minimisations  :   458
 total energy-change (2. order) :-0.9695520E-07  (-0.6535655E-07)
 number of electron       7.9999997 magnetization 
 augmentation part        0.1795542 magnetization 

 Free energy of the ion-electron system (eV)
  ---------------------------------------------------
  alpha Z        PSCENC =        26.74844880
  Ewald energy   TEWEN  =      -338.84641273
  -Hartree energ DENC   =       -27.76418258
  -exchange      EXHF   =         0.00000000
  -V(xc)+E(xc)   XCENC  =        27.67883343
  PAW double counting   =       677.24130048     -678.54211838
  entropy T*S    EENTRO =         0.00027178
  eigenvalues    EBANDS =         1.18551802
  atomic energy  EATOM  =       294.30884690
  Solvation  Ediel_sol  =         0.00000000
  ---------------------------------------------------
  free energy    TOTEN  =       -17.98949428 eV

  energy without entropy =      -17.98976605  energy(sigma->0) =      -17.98958487


--------------------------------------------------------------------------------------------------------




 average (electrostatic) potential at core
  the test charge radii are     0.6991
  (the norm of the test charge is              1.0000)
       1 -46.4723       2 -46.4721



 E-fermi :   8.7228     XC(G=0): -12.8401     alpha+bet :-16.3172

 Fermi energy:         8.7228261829

 k-point     1 :       0.0000    0.0000    0.0000
  band No.  band energies     occupation 
      1     -11.8068      2.00000
      2       8.6386      2.00009
      3       8.6386      1.99999
      4       8.6387      1.99992
      5      14.0036      0.00000
      6      14.0036      0.00000
      7      14.0037      0.00000
      8      20.1938      0.00000

 k-point     2 :       0.2500    0.0000    0.0000
  band No.  band energies     occupation 
      1     -10.1866      2.00000
      2       2.4045      2.00000
      3       7.0236      2.00000
      4       7.0236      2.00000
      5      16.0412      0.00000
      6      16.0518      0.00000
      7      16.0518      0.00000
      8      21.9852      0.00000

 k-point     3 :       0.0000    0.2500    0.0000
  band No.  band energies     occupation 
      1     -10.1866      2.00000
      2       2.4046      2.00000
      3       7.0236      2.00000
      4       7.0236      2.00000
      5      16.0412      0.00000
      6      16.0518      0.00000
      7      16.0518      0.00000
      8      21.9852      0.00000

 k-point     4 :       0.0000    0.0000    0.2500
  band No.  band energies     occupation 
      1     -10.1866      2.00000
      2       2.4046      2.00000
      3       7.0236      2.00000
      4       7.0236      2.00000
      5      16.0412      0.00000
      6      16.0518      0.00000
      7      16.0518      0.00000
      8      21.9852      0.00000

 k-point     5 :       0.2500    0.2500    0.2500
  band No.  band energies     occupation 
      1     -10.1866      2.00000
      2       2.4045      2.00000
      3       7.0236      2.00000
      4       7.0236      2.00000
      5      16.0412      0.00000
      6      16.0518      0.00000
      7      16.0518      0.00000
      8      28.6014      0.00000

 k-point     6 :       0.5000    0.0000    0.0000
  band No.  band energies     occupation 
      1      -6.4713      2.00000
      2      -3.8941      2.00000
      3       6.0359      2.00000
      4       6.0360      2.00000
      5      16.4300      0.00000
      6      16.7529      0.00000
      7      16.7529      0.00000
      8      23.5777      0.00000

 k-point     7 :       0.0000    0.5000    0.0000
  band No.  band energies     occupation 
      1      -6.4713      2.00000
      2      -3.8941      2.00000
      3       6.0359      2.00000
      4       6.0360      2.00000
      5      16.4300      0.00000
      6      16.7529      0.00000
      7      16.7529      0.00000
      8      23.5777      0.00000

 k-point     8 :       0.0000    0.0000    0.5000
  band No.  band energies     occupation 
      1      -6.4713      2.00000
      2      -3.8941      2.00000
      3       6.0359      2.00000
      4       6.0360      2.00000
      5      16.4300      0.00000
      6      16.7529      0.00000
      7      16.7529      0.00000
      8      23.5777      0.00000

 k-point     9 :       0.5000    0.5000    0.5000
  band No.  band energies     occupation 
      1      -6.4712      2.00000
      2      -3.8941      2.00000
      3       6.0359      2.00000
      4       6.0360      2.00000
      5      16.4301      0.00000
      6      16.7529      0.00000
      7      16.7529      0.00000
      8      23.5777      0.00000

 k-point    10 :       0.2500    0.2500    0.0000
  band No.  band energies     occupation 
      1      -9.6470      2.00000
      2       4.2050      2.00000
      3       4.8331      2.00000
      4       4.8331      2.00000
      5      12.8793      0.00000
      6      18.2912      0.00000
      7      19.5174      0.00000
      8      19.5174      0.00000

 k-point    11 :       0.0000    0.2500    0.2500
  band No.  band energies     occupation 
      1      -9.6470      2.00000
      2       4.2050      2.00000
      3       4.8331      2.00000
      4       4.8331      2.00000
      5      12.8793      0.00000
      6      18.2912      0.00000
      7      19.5174      0.00000
      8      19.5174      0.00000

 k-point    12 :       0.2500    0.0000    0.2500
  band No.  band energies     occupation 
      1      -9.6470      2.00000
      2       4.2050      2.00000
      3       4.8331      2.00000
      4       4.8331      2.00000
      5      12.8793      0.00000
      6      18.2912      0.00000
      7      19.5174      0.00000
      8      19.5174      0.00000

 k-point    13 :       0.5000    0.2500    0.0000
  band No.  band energies     occupation 
      1      -6.1517      2.00000
      2      -1.6034      2.00000
      3       2.3050      2.00000
      4       4.1234      2.00000
      5      14.4529      0.00000
      6      19.4090      0.00000
      7      20.6934      0.00000
      8      20.9844      0.00000

 k-point    14 :       0.0000    0.5000    0.2500
  band No.  band energies     occupation 
      1      -6.1517      2.00000
      2      -1.6033      2.00000
      3       2.3050      2.00000
      4       4.1234      2.00000
      5      14.4529      0.00000
      6      19.4090      0.00000
      7      20.6934      0.00000
      8      20.9844      0.00000

 k-point    15 :       0.2500    0.0000    0.5000
  band No.  band energies     occupation 
      1      -6.1517      2.00000
      2      -1.6033      2.00000
      3       2.3050      2.00000
      4       4.1234      2.00000
      5      14.4529      0.00000
      6      19.4090      0.00000
      7      20.6933      0.00000
      8      20.9844      0.00000

 k-point    16 :       0.2500    0.2500   -0.2500
  band No.  band energies     occupation 
      1      -6.1517      2.00000
      2      -1.6033      2.00000
      3       2.3049      2.00000
      4       4.1234      2.00000
      5      14.4529      0.00000
      6      19.4090      0.00000
      7      20.6933      0.00000
      8      20.9844      0.00000

 k-point    17 :       0.5000    0.2500    0.5000
  band No.  band energies     occupation 
      1      -6.1517      2.00000
      2      -1.6034      2.00000
      3       2.3050      2.00000
      4       4.1234      2.00000
      5      14.4529      0.00000
      6      19.4090      0.00000
      7      20.6934      0.00000
      8      20.9844      0.00000

 k-point    18 :       0.2500    0.5000    0.0000
  band No.  band energies     occupation 
      1      -6.1517      2.00000
      2      -1.6033      2.00000
      3       2.3050      2.00000
      4       4.1234      2.00000
      5      14.4529      0.00000
      6      19.4090      0.00000
      7      20.6933      0.00000
      8      20.9844      0.00000

 k-point    19 :       0.2500   -0.2500   -0.2500
  band No.  band energies     occupation 
      1      -6.1517      2.00000
      2      -1.6034      2.00000
      3       2.3050      2.00000
      4       4.1234      2.00000
      5      14.4529      0.00000
      6      19.4090      0.00000
      7      20.6933      0.00000
      8      20.9844      0.00000

 k-point    20 :       0.5000    0.5000    0.2500
  band No.  band energies     occupation 
      1      -6.1517      2.00000
      2      -1.6034      2.00000
      3       2.3050      2.00000
      4       4.1234      2.00000
      5      14.4529      0.00000
      6      19.4090      0.00000
      7      20.6934      0.00000
      8      20.9844      0.00000

 k-point    21 :       0.0000    0.2500    0.5000
  band No.  band energies     occupation 
      1      -6.1517      2.00000
      2      -1.6033      2.00000
      3       2.3050      2.00000
      4       4.1234      2.00000
      5      14.4529      0.00000
      6      19.4090      0.00000
      7      20.6934      0.00000
      8      20.9844      0.00000

 k-point    22 :      -0.2500    0.2500   -0.2500
  band No.  band energies     occupation 
      1      -6.1517      2.00000
      2      -1.6033      2.00000
      3       2.3049      2.00000
      4       4.1234      2.00000
      5      14.4529      0.00000
      6      19.4090      0.00000
      7      20.6933      0.00000
      8      20.9844      0.00000

 k-point    23 :       0.2500    0.5000    0.5000
  band No.  band energies     occupation 
      1      -6.1517      2.00000
      2      -1.6034      2.00000
      3       2.3050      2.00000
      4       4.1234      2.00000
      5      14.4529      0.00000
      6      19.4090      0.00000
      7      20.6933      0.00000
      8      20.9844      0.00000

 k-point    24 :       0.5000    0.0000    0.2500
  band No.  band energies     occupation 
      1      -6.1517      2.00000
      2      -1.6034      2.00000
      3       2.3050      2.00000
      4       4.1234      2.00000
      5      14.4529      0.00000
      6      19.4090      0.00000
      7      20.6934      0.00000
      8      20.9844      0.00000

 k-point    25 :      -0.2500    0.2500    0.0000
  band No.  band energies     occupation 
      1      -7.5995      2.00000
      2       0.3123      2.00000
      3       1.5618      2.00000
      4       5.8474      2.00000
      5      16.1321      0.00000
      6      18.0976      0.00000
      7      20.1638      0.00000
      8      21.4176      0.00000

 k-point    26 :       0.0000   -0.2500    0.2500
  band No.  band energies     occupation 
      1      -7.5995      2.00000
      2       0.3123      2.00000
      3       1.5617      2.00000
      4       5.8474      2.00000
      5      16.1321      0.00000
      6      18.0976      0.00000
      7      20.1638      0.00000
      8      21.4176      0.00000

 k-point    27 :       0.2500    0.0000   -0.2500
  band No.  band energies     occupation 
      1      -7.5995      2.00000
      2       0.3123      2.00000
      3       1.5618      2.00000
      4       5.8474      2.00000
      5      16.1321      0.00000
      6      18.0976      0.00000
      7      20.1638      0.00000
      8      21.4176      0.00000

 k-point    28 :       0.2500    0.2500    0.5000
  band No.  band energies     occupation 
      1      -7.5995      2.00000
      2       0.3123      2.00000
      3       1.5618      2.00000
      4       5.8474      2.00000
      5      16.1322      0.00000
      6      18.0976      0.00000
      7      20.1638      0.00000
      8      21.4176      0.00000

 k-point    29 :      -0.2500    0.5000   -0.2500
  band No.  band energies     occupation 
      1      -7.5995      2.00000
      2       0.3123      2.00000
      3       1.5618      2.00000
      4       5.8474      2.00000
      5      16.1322      0.00000
      6      18.0976      0.00000
      7      20.1638      0.00000
      8      21.4176      0.00000

 k-point    30 :       0.5000   -0.2500   -0.2500
  band No.  band energies     occupation 
      1      -7.5995      2.00000
      2       0.3122      2.00000
      3       1.5618      2.00000
      4       5.8474      2.00000
      5      16.1322      0.00000
      6      18.0976      0.00000
      7      21.2879      0.00000
      8      27.5555      0.00000

 k-point    31 :       0.5000    0.5000    0.0000
  band No.  band energies     occupation 
      1      -3.5898      2.00000
      2      -3.5898      2.00000
      3       2.8017      2.00000
      4       2.8017      2.00000
      5      13.2165      0.00000
      6      13.2165      0.00000
      7      24.2675      0.00000
      8      24.2675      0.00000

 k-point    32 :       0.0000    0.5000    0.5000
  band No.  band energies     occupation 
      1      -3.5898      2.00000
      2      -3.5898      2.00000
      3       2.8017      2.00000
      4       2.8017      2.00000
      5      13.2165      0.00000
      6      13.2165      0.00000
      7      24.2675      0.00000
      8      30.4378      0.00000

 k-point    33 :       0.5000    0.0000    0.5000
  band No.  band energies     occupation 
      1      -3.5898      2.00000
      2      -3.5898      2.00000
      3       2.8017      2.00000
      4       2.8017      2.00000
      5      13.2165      0.00000
      6      13.2165      0.00000
      7      24.2675      0.00000
      8      24.2675      0.00000

 k-point    34 :      -0.2500    0.5000    0.2500
  band No.  band energies     occupation 
      1      -2.9185      2.00000
      2      -2.9184      2.00000
      3       0.9719      2.00000
      4       0.9719      2.00000
      5      18.8892      0.00000
      6      18.8892      0.00000
      7      19.9491      0.00000
      8      19.9492      0.00000

 k-point    35 :       0.2500   -0.2500    0.5000
  band No.  band energies     occupation 
      1      -2.9185      2.00000
      2      -2.9184      2.00000
      3       0.9719      2.00000
      4       0.9719      2.00000
      5      18.8892      0.00000
      6      18.8892      0.00000
      7      19.9491      0.00000
      8      19.9492      0.00000

 k-point    36 :       0.5000    0.2500   -0.2500
  band No.  band energies     occupation 
      1      -2.9185      2.00000
      2      -2.9184      2.00000
      3       0.9719      2.00000
      4       0.9719      2.00000
      5      18.8892      0.00000
      6      18.8892      0.00000
      7      19.9491      0.00000
      8      19.9492      0.00000


--------------------------------------------------------------------------------------------------------


 soft charge-density along one line, spin component           1
         0         1         2         3         4         5         6         7         8         9
 total charge-density along one line

 pseudopotential strength for first ion, spin component:           1
  9.494  12.609   0.000   0.000   0.000  -0.000  -0.000  -0.000
 12.609  16.744   0.000   0.000   0.000  -0.000  -0.000  -0.000
  0.000   0.000  -3.722  -0.000   0.000   7.295   0.000  -0.000
  0.000   0.000  -0.000  -3.722   0.000   0.000   7.295   0.000
  0.000   0.000   0.000   0.000  -3.722  -0.000   0.000   7.295
 -0.000  -0.000   7.295   0.000  -0.000 -16.397  -0.000   0.000
 -0.000  -0.000   0.000   7.295   0.000  -0.000 -16.397  -0.000
 -0.000  -0.000  -0.000   0.000   7.295   0.000  -0.000 -16.397
 total augmentation occupancy for first ion, spin component:           1
  6.641  -2.819   0.000  -0.000  -0.000  -0.000  -0.000  -0.000
 -2.819   1.274   0.000   0.000   0.000   0.000   0.000   0.000
  0.000   0.000   1.496   0.000   0.000   0.120   0.000   0.000
 -0.000   0.000   0.000   1.496   0.000   0.000   0.120   0.000
 -0.000   0.000   0.000   0.000   1.496   0.000   0.000   0.120
 -0.000   0.000   0.120   0.000   0.000   0.011   0.000   0.000
 -0.000   0.000   0.000   0.120   0.000   0.000   0.011   0.000
 -0.000   0.000   0.000   0.000   0.120   0.000   0.000   0.011


------------------------ aborting loop because EDIFF is reached ----------------------------------------


    CHARGE:  cpu time      0.0089: real time      0.0089
    FORLOC:  cpu time      0.0003: real time      0.0003
    FORNL :  cpu time      0.0081: real time      0.0081
    STRESS:  cpu time      0.0482: real time      0.0482
    FORCOR:  cpu time      0.0060: real time      0.0060
    FORHAR:  cpu time      0.0014: real time      0.0014
    MIXING:  cpu time      0.0002: real time      0.0002
    OFIELD:  cpu time      0.0000: real time      0.0000

  DFT-D2 method for vdW energy calculation
  -------------------------------------------------------------------

  Parameters of vdW forcefield:
         C6(Jnm^6/mol)     R0(A)
   -----------------------------
   C        1.750          1.452

  vdW correction parametrized for the method pbe       

  IVDW =  10
  VDW_RADIUS =    50.000 A
  VDW_S6 =     0.750
  VDW_SR =     1.000
  VDW_D =    20.000
  LVDW_EWALD = F

  Number of pair interactions contributing to vdW energy:  127808
  Edisp (eV):   -0.41006
    FORVDW:  cpu time      0.0201: real time      0.0201

  FORCE on cell =-STRESS in cart. coord.  units (eV):
  Direction    XX          YY          ZZ          XY          YZ          ZX
  --------------------------------------------------------------------------------------
  Alpha Z    26.74845    26.74845    26.74845
  Ewald    -112.94886  -112.94886  -112.94886    -0.00000    -0.00000    -0.00000
  Hartree     9.25507     9.25501     9.25500     0.00002     0.00002     0.00001
  E(xc)     -29.92804   -29.92804   -29.92804    -0.00000    -0.00000    -0.00000
  Local     -12.51015   -12.51004   -12.51002    -0.00001    -0.00004    -0.00000
  n-local    -6.72311    -6.72309    -6.72310    -0.00001    -0.00000    -0.00001
  augment    -0.66574    -0.66572    -0.66572    -0.00001    -0.00001    -0.00001
  Kinetic   124.65725   124.65727   124.65729    -0.00001    -0.00002    -0.00001
  Fock        0.00000     0.00000     0.00000     0.00000     0.00000     0.00000
  vdW        -0.22345    -0.22345    -0.22345     0.00000     0.00000    -0.00000
  -------------------------------------------------------------------------------------
  Total      -2.33859    -2.33847    -2.33843    -0.00002    -0.00005    -0.00002
  in kB    -305.00889  -304.99307  -304.98866    -0.00292    -0.00597    -0.00246
  external pressure =     -305.00 kB  Pullay stress =        0.00 kB


 VOLUME and BASIS-vectors are now :
 -----------------------------------------------------------------------------
  energy-cutoff  :      800.00
  volume of cell :       12.28
      direct lattice vectors                 reciprocal lattice vectors
     2.589935000  0.000000000  0.000000000     0.386110076 -0.222920756 -0.157628779
     1.294967500  2.242949504  0.000000000     0.000000000  0.445841513 -0.157628779
     1.294967500  0.747649835  2.114673072     0.000000000  0.000000000  0.472886336

  length of vectors
     2.589935000  2.589935000  2.589935000     0.472886336  0.472886336  0.472886336


 FORCES acting on ions
    electron-ion (+dipol)            ewald-force                    non-local-force                 convergence-correction
 -----------------------------------------------------------------------------------------------
   0.106E-03 0.227E-03 0.170E-03   0.329E-13 0.387E-13 -.330E-13   0.627E-05 -.268E-05 -.103E-04   -.887E-04 -.183E-03 -.134E-03
   -.157E-03 -.197E-03 -.144E-03   -.335E-13 -.389E-13 0.330E-13   0.423E-05 -.293E-05 0.446E-05   0.125E-03 0.162E-03 0.117E-03
 -----------------------------------------------------------------------------------------------
   -.514E-04 0.300E-04 0.252E-04   -.602E-15 -.162E-15 -.683E-16   0.105E-04 -.562E-05 -.579E-05   0.359E-04 -.211E-04 -.167E-04


 POSITION                                       TOTAL-FORCE (eV/Angst)
 -----------------------------------------------------------------------------------
      0.00000      0.00000      0.00000         0.000026      0.000039      0.000024
      1.29497      0.74765      0.52867        -0.000026     -0.000039     -0.000024
 -----------------------------------------------------------------------------------
    total drift:                               -0.000005      0.000003      0.000003


--------------------------------------------------------------------------------------------------------



  FREE ENERGIE OF THE ION-ELECTRON SYSTEM (eV)
  ---------------------------------------------------
  free  energy   TOTEN  =       -18.39955889 eV

  energy  without entropy=      -18.39983066  energy(sigma->0) =      -18.39964948



--------------------------------------------------------------------------------------------------------


    POTLOK:  cpu time      0.0073: real time      0.0073


--------------------------------------------------------------------------------------------------------


     LOOP+:  cpu time      2.7051: real time      2.7053
    4ORBIT:  cpu time      0.0000: real time      0.0000

 total amount of memory used by VASP MPI-rank0    35295. kBytes
=======================================================================

   base      :      30000. kBytes
   nonl-proj :       1513. kBytes
   fftplans  :        848. kBytes
   grid      :       1399. kBytes
   one-center:          6. kBytes
   wavefun   :       1529. kBytes

  
  
 General timing and accounting informations for this job:
 ========================================================
  
                  Total CPU time used (sec):        3.714
                            User time (sec):        3.042
                          System time (sec):        0.672
                         Elapsed time (sec):        3.906
  
                   Maximum memory used (kb):       51304.
                   Average memory used (kb):          N/A
  
                          Minor page faults:         5431
                          Major page faults:            2
                 Voluntary context switches:         1136
