 running    2 mpi-ranks, with    1 threads/rank, on    1 nodes
 distrk:  each k-point on    2 cores,    1 groups
 distr:  one band on    1 cores,    2 groups
 vasp.6.4.2 20Jul23 (build Oct 18 2023 12:49:41) complex                         
 POSCAR found :  1 types and       2 ions
 Reading from existing POTCAR
 scaLAPACK will be used
 Reading from existing POTCAR
 LDA part: xc-table for Pade appr. of Perdew
 POSCAR, INCAR and KPOINTS ok, starting setup
 FFT: planning ... GRIDC
 FFT: planning ... GRID_SOFT
 FFT: planning ... GRID
 WAVECAR not read
 WARNING: random wavefunctions but no delay for mixing, default for NELMDL
 entering main loop
       N       E                     dE             d eps       ncg     rms          rms(c)
RMM:   1     0.618066918551E+02    0.61807E+02   -0.34991E+03   288   0.110E+03
RMM:   2     0.197808405344E+01   -0.59829E+02   -0.53296E+02   288   0.219E+02
RMM:   3    -0.145111284481E+02   -0.16489E+02   -0.99997E+01   288   0.713E+01
RMM:   4    -0.180893798615E+02   -0.35783E+01   -0.20850E+01   288   0.371E+01
RMM:   5    -0.186338086743E+02   -0.54443E+00   -0.40624E+00   288   0.144E+01
RMM:   6    -0.187405567214E+02   -0.10675E+00   -0.83838E-01   288   0.632E+00
RMM:   7    -0.187633352212E+02   -0.22778E-01   -0.18693E-01   288   0.267E+00
RMM:   8    -0.187687825240E+02   -0.54473E-02   -0.43812E-02   288   0.119E+00
RMM:   9    -0.187700133490E+02   -0.12308E-02   -0.96142E-03   721   0.505E-01
RMM:  10    -0.187703165615E+02   -0.30321E-03   -0.20071E-03   643   0.204E-01
RMM:  11    -0.187703471757E+02   -0.30614E-04   -0.24481E-04   619   0.768E-02
RMM:  12    -0.187703531007E+02   -0.59249E-05   -0.52367E-05   586   0.321E-02    0.626E+00
RMM:  13    -0.184011956285E+02    0.36916E+00   -0.95329E-02  1042   0.274E+00    0.501E+00
RMM:  14    -0.179262537195E+02    0.47494E+00   -0.91174E-01  1152   0.855E+00    0.130E+00
RMM:  15    -0.179283088947E+02   -0.20552E-02   -0.16110E-03   694   0.549E-01    0.272E-01
RMM:  16    -0.179282535662E+02    0.55328E-04   -0.84894E-04   606   0.348E-01    0.613E-02
RMM:  17    -0.179283322810E+02   -0.78715E-04   -0.15786E-04   600   0.157E-01    0.250E-02
RMM:  18    -0.179283154725E+02    0.16808E-04   -0.27593E-05   615   0.557E-02    0.674E-03
RMM:  19    -0.179283155735E+02   -0.10105E-06   -0.12049E-06   472   0.149E-02
   1 F= -.18375223E+02 E0= -.18375314E+02  d E =0.271777E-03
