 running    2 mpi-ranks, with    1 threads/rank, on    1 nodes
 distrk:  each k-point on    2 cores,    1 groups
 distr:  one band on    1 cores,    2 groups
 vasp.6.4.2 20Jul23 (build Oct 18 2023 12:49:41) complex                         
 POSCAR found :  1 types and       2 ions
 Reading from existing POTCAR
 scaLAPACK will be used
 Reading from existing POTCAR
 LDA part: xc-table for Pade appr. of Perdew
 POSCAR, INCAR and KPOINTS ok, starting setup
 FFT: planning ... GRIDC
 FFT: planning ... GRID_SOFT
 FFT: planning ... GRID
 WAVECAR not read
 WARNING: random wavefunctions but no delay for mixing, default for NELMDL
 entering main loop
       N       E                     dE             d eps       ncg     rms          rms(c)
RMM:   1     0.604765780785E+02    0.60477E+02   -0.33990E+03   288   0.108E+03
RMM:   2     0.129721626871E+01   -0.59179E+02   -0.52887E+02   288   0.217E+02
RMM:   3    -0.147123421148E+02   -0.16010E+02   -0.10192E+02   288   0.715E+01
RMM:   4    -0.179014152370E+02   -0.31891E+01   -0.19941E+01   288   0.362E+01
RMM:   5    -0.185764088254E+02   -0.67499E+00   -0.48310E+00   288   0.150E+01
RMM:   6    -0.187100643448E+02   -0.13366E+00   -0.10103E+00   288   0.666E+00
RMM:   7    -0.187360193628E+02   -0.25955E-01   -0.20568E-01   288   0.283E+00
RMM:   8    -0.187411235541E+02   -0.51042E-02   -0.41299E-02   288   0.125E+00
RMM:   9    -0.187420110856E+02   -0.88753E-03   -0.77958E-03   729   0.530E-01
RMM:  10    -0.187422340044E+02   -0.22292E-03   -0.18996E-03   656   0.224E-01
RMM:  11    -0.187422544313E+02   -0.20427E-04   -0.19275E-04   625   0.803E-02
RMM:  12    -0.187422593070E+02   -0.48758E-05   -0.48209E-05   599   0.343E-02    0.568E+00
RMM:  13    -0.184445134210E+02    0.29775E+00   -0.77774E-02  1040   0.241E+00    0.454E+00
RMM:  14    -0.180606222200E+02    0.38389E+00   -0.75713E-01  1152   0.761E+00    0.111E+00
RMM:  15    -0.180625065783E+02   -0.18844E-02   -0.17152E-03   681   0.558E-01    0.220E-01
RMM:  16    -0.180624856090E+02    0.20969E-04   -0.84843E-04   605   0.345E-01    0.618E-02
RMM:  17    -0.180625587379E+02   -0.73129E-04   -0.12724E-04   606   0.142E-01    0.194E-02
RMM:  18    -0.180625496655E+02    0.90725E-05   -0.16664E-05   636   0.450E-02    0.614E-03
RMM:  19    -0.180625497535E+02   -0.88068E-07   -0.94126E-07   453   0.118E-02
   1 F= -.18492228E+02 E0= -.18492318E+02  d E =0.271777E-03
