 running    2 mpi-ranks, with    1 threads/rank, on    1 nodes
 distrk:  each k-point on    2 cores,    1 groups
 distr:  one band on    1 cores,    2 groups
 vasp.6.4.2 20Jul23 (build Oct 18 2023 12:49:41) complex                         
 POSCAR found :  1 types and       2 ions
 Reading from existing POTCAR
 scaLAPACK will be used
 Reading from existing POTCAR
 LDA part: xc-table for Pade appr. of Perdew
 POSCAR, INCAR and KPOINTS ok, starting setup
 FFT: planning ... GRIDC
 FFT: planning ... GRID_SOFT
 FFT: planning ... GRID
 WAVECAR not read
 WARNING: random wavefunctions but no delay for mixing, default for NELMDL
 entering main loop
       N       E                     dE             d eps       ncg     rms          rms(c)
RMM:   1     0.638904662708E+02    0.63890E+02   -0.34655E+03   288   0.109E+03
RMM:   2     0.247165013310E+01   -0.61419E+02   -0.53942E+02   288   0.219E+02
RMM:   3    -0.144634418930E+02   -0.16935E+02   -0.10434E+02   288   0.725E+01
RMM:   4    -0.181032308598E+02   -0.36398E+01   -0.19821E+01   288   0.364E+01
RMM:   5    -0.186149794434E+02   -0.51175E+00   -0.36382E+00   288   0.138E+01
RMM:   6    -0.187076141003E+02   -0.92635E-01   -0.69689E-01   288   0.583E+00
RMM:   7    -0.187250430331E+02   -0.17429E-01   -0.14127E-01   288   0.239E+00
RMM:   8    -0.187286418730E+02   -0.35988E-02   -0.29204E-02   288   0.103E+00
RMM:   9    -0.187293392350E+02   -0.69736E-03   -0.57531E-03   725   0.433E-01
RMM:  10    -0.187294985848E+02   -0.15935E-03   -0.11744E-03   658   0.176E-01
RMM:  11    -0.187295149576E+02   -0.16373E-04   -0.13620E-04   628   0.656E-02
RMM:  12    -0.187295177471E+02   -0.27895E-05   -0.27183E-05   587   0.264E-02    0.651E+00
RMM:  13    -0.183287427949E+02    0.40077E+00   -0.10125E-01  1028   0.286E+00    0.522E+00
RMM:  14    -0.178136342152E+02    0.51511E+00   -0.96429E-01  1152   0.890E+00    0.137E+00
RMM:  15    -0.178157386769E+02   -0.21045E-02   -0.16172E-03   686   0.552E-01    0.291E-01
RMM:  16    -0.178156743924E+02    0.64284E-04   -0.83116E-04   612   0.346E-01    0.605E-02
RMM:  17    -0.178157524972E+02   -0.78105E-04   -0.15630E-04   611   0.157E-01    0.261E-02
RMM:  18    -0.178157351249E+02    0.17372E-04   -0.28459E-05   626   0.564E-02    0.648E-03
RMM:  19    -0.178157352199E+02   -0.94967E-07   -0.12792E-06   493   0.149E-02
   1 F= -.18270350E+02 E0= -.18270440E+02  d E =0.271777E-03
