 running    2 mpi-ranks, with    1 threads/rank, on    1 nodes
 distrk:  each k-point on    2 cores,    1 groups
 distr:  one band on    1 cores,    2 groups
 vasp.6.4.2 20Jul23 (build Oct 18 2023 12:49:41) complex                         
 POSCAR found :  1 types and       2 ions
 Reading from existing POTCAR
 scaLAPACK will be used
 Reading from existing POTCAR
 LDA part: xc-table for Pade appr. of Perdew
 POSCAR, INCAR and KPOINTS ok, starting setup
 FFT: planning ... GRIDC
 FFT: planning ... GRID_SOFT
 FFT: planning ... GRID
 WAVECAR not read
 WARNING: random wavefunctions but no delay for mixing, default for NELMDL
 entering main loop
       N       E                     dE             d eps       ncg     rms          rms(c)
RMM:   1     0.580587647310E+02    0.58059E+02   -0.33567E+03   288   0.107E+03
RMM:   2     0.169505161037E+01   -0.56364E+02   -0.51414E+02   288   0.214E+02
RMM:   3    -0.135686124291E+02   -0.15264E+02   -0.10531E+02   288   0.712E+01
RMM:   4    -0.175059828497E+02   -0.39374E+01   -0.20516E+01   288   0.365E+01
RMM:   5    -0.182527043391E+02   -0.74672E+00   -0.54676E+00   288   0.158E+01
RMM:   6    -0.184359391504E+02   -0.18323E+00   -0.13909E+00   288   0.744E+00
RMM:   7    -0.184913117979E+02   -0.55373E-01   -0.36934E-01   288   0.349E+00
RMM:   8    -0.185017492835E+02   -0.10437E-01   -0.78680E-02   288   0.156E+00
RMM:   9    -0.185037120559E+02   -0.19628E-02   -0.16520E-02   722   0.708E-01
RMM:  10    -0.185042308456E+02   -0.51879E-03   -0.42849E-03   665   0.300E-01
RMM:  11    -0.185042905240E+02   -0.59678E-04   -0.56242E-04   636   0.111E-01
RMM:  12    -0.185042971262E+02   -0.66023E-05   -0.65028E-05   616   0.433E-02    0.505E+00
RMM:  13    -0.182789389972E+02    0.22536E+00   -0.60764E-02  1022   0.207E+00    0.404E+00
RMM:  14    -0.179877279294E+02    0.29121E+00   -0.60815E-01  1151   0.664E+00    0.923E-01
RMM:  15    -0.179894119068E+02   -0.16840E-02   -0.18012E-03   659   0.558E-01    0.175E-01
RMM:  16    -0.179894286508E+02   -0.16744E-04   -0.87536E-04   603   0.345E-01    0.617E-02
RMM:  17    -0.179894970103E+02   -0.68359E-04   -0.10385E-04   601   0.127E-01    0.190E-02
RMM:  18    -0.179894941799E+02    0.28304E-05   -0.10104E-05   635   0.400E-02    0.612E-03
RMM:  19    -0.179894942769E+02   -0.96955E-07   -0.65357E-07   458   0.919E-03
   1 F= -.18399559E+02 E0= -.18399649E+02  d E =0.271777E-03
