 running    2 mpi-ranks, with    1 threads/rank, on    1 nodes
 distrk:  each k-point on    2 cores,    1 groups
 distr:  one band on    1 cores,    2 groups
 vasp.6.4.2 20Jul23 (build Oct 18 2023 12:49:41) complex                         
 POSCAR found :  1 types and       2 ions
 Reading from existing POTCAR
 scaLAPACK will be used
 Reading from existing POTCAR
 LDA part: xc-table for Pade appr. of Perdew
 POSCAR, INCAR and KPOINTS ok, starting setup
 FFT: planning ... GRIDC
 FFT: planning ... GRID_SOFT
 FFT: planning ... GRID
 WAVECAR not read
 entering main loop
       N       E                     dE             d eps       ncg     rms          rms(c)
RMM:   1     0.637087097845E+02    0.63709E+02   -0.34759E+03   288   0.109E+03
RMM:   2     0.136209613187E+01   -0.62347E+02   -0.55314E+02   288   0.221E+02
RMM:   3    -0.148002228987E+02   -0.16162E+02   -0.10712E+02   288   0.728E+01
RMM:   4    -0.179928066761E+02   -0.31926E+01   -0.19422E+01   288   0.356E+01
RMM:   5    -0.185483761024E+02   -0.55557E+00   -0.40228E+00   288   0.141E+01
RMM:   6    -0.186616514085E+02   -0.11328E+00   -0.88400E-01   288   0.604E+00
RMM:   7    -0.186877768318E+02   -0.26125E-01   -0.21544E-01   288   0.254E+00
RMM:   8    -0.186943828151E+02   -0.66060E-02   -0.56066E-02   288   0.113E+00
RMM:   9    -0.186961053606E+02   -0.17225E-02   -0.14074E-02   722   0.487E-01
RMM:  10    -0.186966315364E+02   -0.52618E-03   -0.38410E-03   649   0.198E-01
RMM:  11    -0.186966889548E+02   -0.57418E-04   -0.52692E-04   630   0.779E-02
RMM:  12    -0.186967069570E+02   -0.18002E-04   -0.17901E-04   582   0.334E-02    0.664E+00
RMM:  13    -0.182794539774E+02    0.41725E+00   -0.10418E-01  1034   0.291E+00    0.532E+00
RMM:  14    -0.177433944303E+02    0.53606E+00   -0.98827E-01  1152   0.905E+00    0.141E+00
RMM:  15    -0.177455464986E+02   -0.21521E-02   -0.16065E-03   707   0.553E-01    0.299E-01
RMM:  16    -0.177454711301E+02    0.75369E-04   -0.81100E-04   614   0.343E-01    0.596E-02
RMM:  17    -0.177455492894E+02   -0.78159E-04   -0.15522E-04   613   0.157E-01    0.267E-02
RMM:  18    -0.177455312817E+02    0.18008E-04   -0.28632E-05   631   0.565E-02    0.635E-03
RMM:  19    -0.177455313548E+02   -0.73146E-07   -0.12264E-06   490   0.149E-02
   1 F= -.18204296E+02 E0= -.18204387E+02  d E =0.271777E-03
