<?xml version="1.0" encoding="ISO-8859-1"?>
<modeling>
 <generator>
  <i name="program" type="string">vasp </i>
  <i name="version" type="string">6.4.2  </i>
  <i name="subversion" type="string">20Jul23 (build Oct 18 2023 12:49:41) complex                          parallel </i>
  <i name="platform" type="string">LinuxGNU </i>
  <i name="date" type="string">2025 06 06 </i>
  <i name="time" type="string">10:33:10 </i>
 </generator>
 <incar>
  <i type="string" name="SYSTEM">C</i>
  <i type="string" name="PREC">Normal</i>
  <i type="string" name="ALGO">Very Fast</i>
  <i type="int" name="NSIM">     4</i>
  <i name="AMIX">      0.20000000</i>
  <i name="EDIFF">      0.00000100</i>
  <i type="int" name="ISYM">     0</i>
  <i name="ENCUT">    800.00000000</i>
  <i type="logical" name="LREAL"> F  </i>
  <i type="int" name="ISMEAR">     1</i>
  <i name="SIGMA">      0.10000000</i>
  <i type="logical" name="LWAVE"> F  </i>
  <i type="logical" name="LCHARG"> F  </i>
  <i type="int" name="IVDW">    10</i>
 </incar>
 <primitive_cell>
  <structure name="primitive_cell" >
   <crystal>
    <varray name="basis" >
     <v>       2.58993500       0.00000000       0.00000000 </v>
     <v>       1.29496750       2.24294950       0.00000000 </v>
     <v>       1.29496750       0.74764983       2.11467307 </v>
    </varray>
    <i name="volume">     12.28433344 </i>
    <varray name="rec_basis" >
     <v>       0.38611008      -0.22292076      -0.15762878 </v>
     <v>       0.00000000       0.44584151      -0.15762878 </v>
     <v>       0.00000000       0.00000000       0.47288634 </v>
    </varray>
   </crystal>
   <varray name="positions" >
    <v>       0.00000000       0.00000000       0.00000000 </v>
    <v>       0.25000000       0.25000000       0.25000000 </v>
   </varray>
  </structure>
  <varray name="primitive_index" >
   <v type="int" >        1 </v>
   <v type="int" >        2 </v>
  </varray>
 </primitive_cell>
 <kpoints>
  <generation param="Gamma">
   <v type="int" name="divisions">       4        4        4 </v>
   <v name="usershift">      0.00000000       0.00000000       0.00000000 </v>
   <v name="genvec1">      0.25000000      -0.00000000      -0.00000000 </v>
   <v name="genvec2">      0.00000000       0.25000000       0.00000000 </v>
   <v name="genvec3">      0.00000000       0.00000000       0.25000000 </v>
   <v name="shift">      0.00000000       0.00000000       0.00000000 </v>
  </generation>
  <varray name="kpointlist" >
   <v>       0.00000000       0.00000000       0.00000000 </v>
   <v>       0.25000000       0.00000000       0.00000000 </v>
   <v>       0.00000000       0.25000000       0.00000000 </v>
   <v>       0.00000000       0.00000000       0.25000000 </v>
   <v>       0.25000000       0.25000000       0.25000000 </v>
   <v>       0.50000000       0.00000000       0.00000000 </v>
   <v>       0.00000000       0.50000000       0.00000000 </v>
   <v>       0.00000000       0.00000000       0.50000000 </v>
   <v>       0.50000000       0.50000000       0.50000000 </v>
   <v>       0.25000000       0.25000000       0.00000000 </v>
   <v>       0.00000000       0.25000000       0.25000000 </v>
   <v>       0.25000000       0.00000000       0.25000000 </v>
   <v>       0.50000000       0.25000000       0.00000000 </v>
   <v>       0.00000000       0.50000000       0.25000000 </v>
   <v>       0.25000000       0.00000000       0.50000000 </v>
   <v>       0.25000000       0.25000000      -0.25000000 </v>
   <v>       0.50000000       0.25000000       0.50000000 </v>
   <v>       0.25000000       0.50000000       0.00000000 </v>
   <v>       0.25000000      -0.25000000      -0.25000000 </v>
   <v>       0.50000000       0.50000000       0.25000000 </v>
   <v>       0.00000000       0.25000000       0.50000000 </v>
   <v>      -0.25000000       0.25000000      -0.25000000 </v>
   <v>       0.25000000       0.50000000       0.50000000 </v>
   <v>       0.50000000       0.00000000       0.25000000 </v>
   <v>      -0.25000000       0.25000000       0.00000000 </v>
   <v>       0.00000000      -0.25000000       0.25000000 </v>
   <v>       0.25000000       0.00000000      -0.25000000 </v>
   <v>       0.25000000       0.25000000       0.50000000 </v>
   <v>      -0.25000000       0.50000000      -0.25000000 </v>
   <v>       0.50000000      -0.25000000      -0.25000000 </v>
   <v>       0.50000000       0.50000000       0.00000000 </v>
   <v>       0.00000000       0.50000000       0.50000000 </v>
   <v>       0.50000000       0.00000000       0.50000000 </v>
   <v>      -0.25000000       0.50000000       0.25000000 </v>
   <v>       0.25000000      -0.25000000       0.50000000 </v>
   <v>       0.50000000       0.25000000      -0.25000000 </v>
  </varray>
  <varray name="weights" >
   <v>       0.01562500 </v>
   <v>       0.03125000 </v>
   <v>       0.03125000 </v>
   <v>       0.03125000 </v>
   <v>       0.03125000 </v>
   <v>       0.01562500 </v>
   <v>       0.01562500 </v>
   <v>       0.01562500 </v>
   <v>       0.01562500 </v>
   <v>       0.03125000 </v>
   <v>       0.03125000 </v>
   <v>       0.03125000 </v>
   <v>       0.03125000 </v>
   <v>       0.03125000 </v>
   <v>       0.03125000 </v>
   <v>       0.03125000 </v>
   <v>       0.03125000 </v>
   <v>       0.03125000 </v>
   <v>       0.03125000 </v>
   <v>       0.03125000 </v>
   <v>       0.03125000 </v>
   <v>       0.03125000 </v>
   <v>       0.03125000 </v>
   <v>       0.03125000 </v>
   <v>       0.03125000 </v>
   <v>       0.03125000 </v>
   <v>       0.03125000 </v>
   <v>       0.03125000 </v>
   <v>       0.03125000 </v>
   <v>       0.03125000 </v>
   <v>       0.01562500 </v>
   <v>       0.01562500 </v>
   <v>       0.01562500 </v>
   <v>       0.03125000 </v>
   <v>       0.03125000 </v>
   <v>       0.03125000 </v>
  </varray>
 </kpoints>
 <parameters>
  <separator name="general" >
   <i type="string" name="SYSTEM">C</i>
   <i type="logical" name="LCOMPAT"> F  </i>
  </separator>
  <separator name="electronic" >
   <i type="string" name="PREC">normal</i>
   <i name="ENMAX">    800.00000000</i>
   <i name="ENAUG">    644.87300000</i>
   <i name="EDIFF">      0.00000100</i>
   <i type="int" name="IALGO">    48</i>
   <i type="int" name="IWAVPR">    10</i>
   <i type="int" name="NBANDS">     8</i>
   <i type="int" name="NBANDSLOW">    -1</i>
   <i type="int" name="NBANDSHIGH">    -1</i>
   <i name="NELECT">      8.00000000</i>
   <i type="int" name="TURBO">     0</i>
   <i type="int" name="IRESTART">     0</i>
   <i type="int" name="NREBOOT">     0</i>
   <i type="int" name="NMIN">     0</i>
   <i name="EREF">      0.00000000</i>
   <separator name="electronic smearing" >
    <i type="int" name="ISMEAR">     1</i>
    <i name="SIGMA">      0.10000000</i>
    <i name="KSPACING">      0.50000000</i>
    <i type="logical" name="KGAMMA"> T  </i>
    <i type="logical" name="KBLOWUP"> T  </i>
   </separator>
   <separator name="electronic projectors" >
    <i type="logical" name="LREAL"> F  </i>
    <v name="ROPT">      0.00000000</v>
    <i type="int" name="LMAXPAW">  -100</i>
    <i type="int" name="LMAXMIX">     2</i>
    <i type="logical" name="NLSPLINE"> F  </i>
   </separator>
   <separator name="electronic startup" >
    <i type="int" name="ISTART">     0</i>
    <i type="int" name="ICHARG">     2</i>
    <i type="int" name="INIWAV">     1</i>
   </separator>
   <separator name="electronic spin" >
    <i type="int" name="ISPIN">     1</i>
    <i type="logical" name="LNONCOLLINEAR"> F  </i>
    <v name="MAGMOM">      1.00000000      1.00000000</v>
    <i name="NUPDOWN">     -1.00000000</i>
    <i type="logical" name="LSORBIT"> F  </i>
    <v name="SAXIS">      0.00000000      0.00000000      1.00000000</v>
    <i type="logical" name="LSPIRAL"> F  </i>
    <v name="QSPIRAL">      0.00000000      0.00000000      0.00000000</v>
    <i type="logical" name="LZEROZ"> F  </i>
   </separator>
   <separator name="electronic exchange-correlation" >
    <i type="logical" name="LASPH"> F  </i>
    <i type="logical" name="LMETAGGA"> F  </i>
   </separator>
   <separator name="electronic convergence" >
    <i type="int" name="NELM">    60</i>
    <i type="int" name="NELMDL">     0</i>
    <i type="int" name="NELMIN">     2</i>
    <i name="ENINI">    800.00000000</i>
    <separator name="electronic convergence detail" >
     <i type="logical" name="LDIAG"> T  </i>
     <i type="logical" name="LSUBROT"> F  </i>
     <i name="WEIMIN">      0.00000000</i>
     <i name="EBREAK">      0.00000003</i>
     <i name="DEPER">      0.30000000</i>
     <i type="int" name="NRMM">     4</i>
     <i name="TIME">      0.40000000</i>
    </separator>
   </separator>
   <separator name="electronic mixer" >
    <i name="AMIX">      0.20000000</i>
    <i name="BMIX">      1.00000000</i>
    <i name="AMIN">      0.10000000</i>
    <i name="AMIX_MAG">      0.80000000</i>
    <i name="BMIX_MAG">      1.00000000</i>
    <separator name="electronic mixer details" >
     <i type="int" name="IMIX">     4</i>
     <i type="logical" name="MIXFIRST"> F  </i>
     <i type="int" name="MAXMIX">   -45</i>
     <i name="WC">    100.00000000</i>
     <i type="int" name="INIMIX">     1</i>
     <i type="int" name="MIXPRE">     1</i>
     <i type="int" name="MREMOVE">     5</i>
    </separator>
   </separator>
   <separator name="electronic dipolcorrection" >
    <i type="logical" name="LDIPOL"> F  </i>
    <i type="logical" name="LMONO"> F  </i>
    <i type="int" name="IDIPOL">     0</i>
    <i name="EPSILON">      1.00000000</i>
    <v name="DIPOL">   -100.00000000   -100.00000000   -100.00000000</v>
    <i name="EFIELD">      0.00000000</i>
   </separator>
  </separator>
  <separator name="grids" >
   <i type="int" name="NGX">    18</i>
   <i type="int" name="NGY">    18</i>
   <i type="int" name="NGZ">    18</i>
   <i type="int" name="NGXF">    36</i>
   <i type="int" name="NGYF">    36</i>
   <i type="int" name="NGZF">    36</i>
   <i type="logical" name="ADDGRID"> F  </i>
  </separator>
  <separator name="ionic" >
   <i type="int" name="NSW">     0</i>
   <i type="int" name="IBRION">    -1</i>
   <i type="int" name="MDALGO">     0</i>
   <i type="int" name="ISIF">     2</i>
   <i name="PSTRESS">      0.00000000</i>
   <i name="EDIFFG">      0.00001000</i>
   <i type="int" name="NFREE">     0</i>
   <i name="POTIM">      0.50000000</i>
   <i name="SMASS">     -3.00000000</i>
   <i name="SCALEE">      1.00000000</i>
  </separator>
  <separator name="ionic md" >
   <i name="TEBEG">      0.00010000</i>
   <i name="TEEND">      0.00010000</i>
   <i type="int" name="NBLOCK">     1</i>
   <i type="int" name="KBLOCK">     1</i>
   <i type="int" name="NPACO">   256</i>
   <i name="APACO">     10.00000000</i>
  </separator>
  <separator name="symmetry" >
   <i type="int" name="ISYM">     0</i>
   <i name="SYMPREC">      0.00001000</i>
  </separator>
  <separator name="dos" >
   <i type="int" name="LORBIT">     0</i>
   <v name="RWIGS">     -1.00000000</v>
   <i type="int" name="NEDOS">   301</i>
   <i name="EMIN">     10.00000000</i>
   <i name="EMAX">    -10.00000000</i>
   <i name="EFERMI">      0.00000000</i>
  </separator>
  <separator name="writing" >
   <i type="int" name="NWRITE">     2</i>
   <i type="logical" name="LWAVE"> F  </i>
   <i type="logical" name="LDOWNSAMPLE"> F  </i>
   <i type="logical" name="LCHARG"> F  </i>
   <i type="logical" name="LPARD"> F  </i>
   <i type="logical" name="LVTOT"> F  </i>
   <i type="logical" name="LVHAR"> F  </i>
   <i type="logical" name="LELF"> F  </i>
   <i type="logical" name="LOPTICS"> F  </i>
   <v name="STM">      0.00000000      0.00000000      0.00000000      0.00000000      0.00000000      0.00000000      0.00000000</v>
  </separator>
  <separator name="performance" >
   <i type="int" name="NPAR">     2</i>
   <i type="int" name="NSIM">     4</i>
   <i type="int" name="NBLK">    -1</i>
   <i type="logical" name="LPLANE"> T  </i>
   <i type="logical" name="LSCALAPACK"> T  </i>
   <i type="logical" name="LSCAAWARE"> F  </i>
   <i type="logical" name="LSCALU"> F  </i>
   <i type="logical" name="LASYNC"> F  </i>
   <i type="logical" name="LORBITALREAL"> F  </i>
  </separator>
  <separator name="miscellaneous" >
   <i type="int" name="IDIOT">     3</i>
   <i type="int" name="PHON_NSTRUCT">    -1</i>
   <i type="logical" name="LMUSIC"> F  </i>
   <v name="POMASS">     12.01100000</v>
   <v name="DARWINR">      0.00000000</v>
   <v name="DARWINV">      1.00000000</v>
   <i type="logical" name="LCORR"> T  </i>
  </separator>
  <i type="logical" name="GGA_COMPAT"> T  </i>
  <i type="logical" name="LBERRY"> F  </i>
  <i type="int" name="ICORELEVEL">     0</i>
  <i type="logical" name="LDAU"> F  </i>
  <i type="int" name="I_CONSTRAINED_M">     0</i>
  <separator name="electronic exchange-correlation" >
   <i type="string" name="GGA">--</i>
   <i type="int" name="VOSKOWN">     0</i>
   <i type="logical" name="LHFCALC"> F  </i>
   <i type="string" name="PRECFOCK"></i>
   <i type="logical" name="LSYMGRAD"> F  </i>
   <i type="logical" name="LHFONE"> F  </i>
   <i type="logical" name="LRHFCALC"> F  </i>
   <i type="logical" name="LTHOMAS"> F  </i>
   <i type="logical" name="LMODELHF"> F  </i>
   <i type="logical" name="LFOCKACE"> F  </i>
   <i name="ENCUT4O">     -1.00000000</i>
   <i type="int" name="EXXOEP">     0</i>
   <i type="int" name="FOURORBIT">     0</i>
   <i name="AEXX">      0.00000000</i>
   <i name="HFALPHA">      0.00000000</i>
   <i name="MCALPHA">      0.00000000</i>
   <i name="ALDAX">      1.00000000</i>
   <i name="AGGAX">      1.00000000</i>
   <i name="ALDAC">      1.00000000</i>
   <i name="AGGAC">      1.00000000</i>
   <i type="int" name="NKREDX">     1</i>
   <i type="int" name="NKREDY">     1</i>
   <i type="int" name="NKREDZ">     1</i>
   <i type="logical" name="SHIFTRED"> F  </i>
   <i type="logical" name="ODDONLY"> F  </i>
   <i type="logical" name="EVENONLY"> F  </i>
   <i type="int" name="LMAXFOCK">     0</i>
   <i type="int" name="NMAXFOCKAE">     0</i>
   <i type="logical" name="LFOCKAEDFT"> F  </i>
   <i name="HFSCREEN">      0.00000000</i>
   <i name="HFSCREENC">      0.00000000</i>
   <i type="int" name="NBANDSGWLOW">     0</i>
  </separator>
  <separator name="vdW DFT" >
   <i type="logical" name="LUSE_VDW"> F  </i>
   <i type="int" name="IVDW_NL">     1</i>
   <i type="logical" name="LSPIN_VDW"> F  </i>
   <i name="Zab_VDW">     -0.84910000</i>
   <i name="PARAM1">      0.12340000</i>
   <i name="PARAM2">      1.00000000</i>
   <i name="PARAM3">      0.00000000</i>
  </separator>
  <separator name="model GW" >
   <i type="int" name="MODEL_GW">     0</i>
   <i name="MODEL_EPS0">      3.68530003</i>
   <i name="MODEL_ALPHA">      1.00000000</i>
  </separator>
  <separator name="linear response parameters" >
   <i type="logical" name="LEPSILON"> F  </i>
   <i type="logical" name="LRPA"> F  </i>
   <i type="logical" name="LNABLA"> F  </i>
   <i type="logical" name="LVEL"> F  </i>
   <i name="CSHIFT">      0.10000000</i>
   <i name="OMEGAMAX">     -1.00000000</i>
   <i name="DEG_THRESHOLD">      0.00200000</i>
   <i name="RTIME">     -0.10000000</i>
   <i name="WPLASMAI">      0.00000000</i>
   <v name="DFIELD">      0.00000000      0.00000000      0.00000000</v>
   <v name="WPLASMA">      0.00000000      0.00000000      0.00000000      0.00000000      0.00000000      0.00000000      0.00000000      0.00000000      0.00000000</v>
  </separator>
  <separator name="orbital magnetization" >
   <i type="logical" name="NUCIND"> F  </i>
   <v name="MAGPOS">      0.00000000      0.00000000      0.00000000</v>
   <i type="logical" name="LNICSALL"> T  </i>
   <i type="logical" name="ORBITALMAG"> F  </i>
   <i type="logical" name="LMAGBLOCH"> F  </i>
   <i type="logical" name="LCHIMAG"> F  </i>
   <i type="logical" name="LGAUGE"> T  </i>
   <i type="int" name="MAGATOM">     0</i>
   <v name="MAGDIPOL">      0.00000000      0.00000000      0.00000000</v>
   <v name="AVECCONST">      0.00000000      0.00000000      0.00000000</v>
  </separator>
  <separator name="response functions" >
   <i type="logical" name="LALL_IN_ONE"> F  </i>
   <i type="int" name="IALL_IN_ONE">    -1</i>
   <i type="int" name="NBANDS_WAVE">    -1</i>
   <i type="logical" name="LFINITE_TEMPERATURE"> F  </i>
   <i type="logical" name="LADDER"> F  </i>
   <i type="logical" name="LRPAFORCE"> F  </i>
   <i type="logical" name="LFXC"> F  </i>
   <i type="logical" name="LHARTREE"> T  </i>
   <i type="int" name="IBSE">     0</i>
   <v type="int" name="KPOINT">    -1     0     0     0</v>
   <i type="logical" name="LTCTC"> F  </i>
   <i type="logical" name="LTCTE"> F  </i>
   <i type="logical" name="LTETE"> F  </i>
   <i type="logical" name="LTRIPLET"> F  </i>
   <i type="logical" name="LFXCEPS"> F  </i>
   <i type="logical" name="LFXHEG"> F  </i>
   <i type="int" name="NATURALO">     2</i>
   <i type="logical" name="LHOLEGF"> F  </i>
   <i type="logical" name="L2ORDER"> F  </i>
   <i type="logical" name="LDMP1"> F  </i>
   <i type="logical" name="LMP2LT"> F  </i>
   <i type="logical" name="LSMP2LT"> F  </i>
   <i type="logical" name="LGWLF"> F  </i>
   <i name="ENCUTGW">     -1.60000002</i>
   <i name="ENCUTGWSOFT">     -1.60000002</i>
   <i name="ENCUTLF">     -1.00000000</i>
   <i type="logical" name="LESF_SPLINES"> F  </i>
   <i type="int" name="LMAXMP2">    -1</i>
   <i name="SCISSOR">      0.00000000</i>
   <i type="int" name="NOMEGA">     0</i>
   <i type="int" name="NOMEGAR">     0</i>
   <i type="int" name="NBANDSGW">    -1</i>
   <i type="int" name="NBANDSO">    -1</i>
   <i type="int" name="NBANDSV">    -1</i>
   <i type="int" name="NELMGW">     1</i>
   <i type="int" name="NELMHF">     1</i>
   <i type="int" name="DIM">     3</i>
   <i type="int" name="IESPILON">     4</i>
   <i type="int" name="ANTIRES">     0</i>
   <i name="OMEGAMAX">    -30.00000000</i>
   <i name="OMEGAMIN">    -30.00000000</i>
   <i name="OMEGATL">   -200.00000000</i>
   <i type="int" name="OMEGAGRID">     0</i>
   <i name="CSHIFT">     -0.10000000</i>
   <i type="logical" name="LSELFENERGY"> F  </i>
   <i type="logical" name="LSPECTRAL"> F  </i>
   <i type="logical" name="LSPECTRALGW"> F  </i>
   <i type="logical" name="LSINGLES"> F  </i>
   <i type="logical" name="LFERMIGW"> F  </i>
   <i type="logical" name="ODDONLYGW"> F  </i>
   <i type="logical" name="EVENONLYGW"> F  </i>
   <i type="int" name="NKREDLFX">     1</i>
   <i type="int" name="NKREDLFY">     1</i>
   <i type="int" name="NKREDLFZ">     1</i>
   <i type="int" name="MAXMEM">  2800</i>
   <i type="int" name="TELESCOPE">     0</i>
   <i type="int" name="NTAUPAR">    -1</i>
   <i type="int" name="NOMEGAPAR">    -1</i>
   <i name="DAMP_NEWTON">      0.80000001</i>
   <i name="LAMBDA">      1.00000000</i>
  </separator>
  <separator name="External order field" >
   <i name="OFIELD_KAPPA">      0.00000000</i>
   <v name="OFIELD_K">      0.00000000      0.00000000      0.00000000</v>
   <i name="OFIELD_Q6_NEAR">      0.00000000</i>
   <i name="OFIELD_Q6_FAR">      0.00000000</i>
   <i name="OFIELD_A">      0.00000000</i>
  </separator>
  <separator name="optional k-points parameters" >
   <i type="int" name="KPOINTS_OPT_MODE">     1</i>
   <i type="logical" name="LKPOINTS_OPT"> F  </i>
  </separator>
 </parameters>
 <atominfo>
  <atoms>       2 </atoms>
  <types>       1 </types>
  <array name="atoms" >
   <dimension dim="1">ion</dimension>
   <field type="string">element</field>
   <field type="int">atomtype</field>
   <set>
    <rc><c>C </c><c>   1</c></rc>
    <rc><c>C </c><c>   1</c></rc>
   </set>
  </array>
  <array name="atomtypes" >
   <dimension dim="1">type</dimension>
   <field type="int">atomspertype</field>
   <field type="string">element</field>
   <field>mass</field>
   <field>valence</field>
   <field type="string">pseudopotential</field>
   <set>
    <rc><c>   2</c><c>C </c><c>     12.01100000</c><c>      4.00000000</c><c>  PAW_PBE C 08Apr2002                   </c></rc>
   </set>
  </array>
 </atominfo>
 <structure name="initialpos" >
  <crystal>
   <varray name="basis" >
    <v>       2.58993500       0.00000000       0.00000000 </v>
    <v>       1.29496750       2.24294950       0.00000000 </v>
    <v>       1.29496750       0.74764983       2.11467307 </v>
   </varray>
   <i name="volume">     12.28433344 </i>
   <varray name="rec_basis" >
    <v>       0.38611008      -0.22292076      -0.15762878 </v>
    <v>       0.00000000       0.44584151      -0.15762878 </v>
    <v>       0.00000000       0.00000000       0.47288634 </v>
   </varray>
  </crystal>
  <varray name="positions" >
   <v>       0.00000000       0.00000000       0.00000000 </v>
   <v>       0.25000000       0.25000000       0.25000000 </v>
  </varray>
 </structure>
 <calculation>
  <scstep>
   <time name="diag">    0.04    0.04</time>
   <time name="diis">    0.06    0.06</time>
   <time name="orth">    0.00    0.00</time>
   <time name="total">    0.10    0.10</time>
   <energy>
    <i name="alphaZ">     26.74844880 </i>
    <i name="ewald">   -338.84641273 </i>
    <i name="hartreedc">    -19.40688224 </i>
    <i name="XCdc">     26.91643053 </i>
    <i name="pawpsdc">    217.04409276 </i>
    <i name="pawaedc">   -218.18290438 </i>
    <i name="eentropy">     -0.00175823 </i>
    <i name="bandstr">     69.47890331 </i>
    <i name="atom">    294.30884690 </i>
    <i name="e_fr_energy">     58.05876473 </i>
    <i name="e_wo_entrp">     58.06052296 </i>
    <i name="e_0_energy">     58.05935081 </i>
   </energy>
  </scstep>
  <scstep>
   <time name="diag">    0.04    0.04</time>
   <time name="diis">    0.06    0.06</time>
   <time name="orth">    0.00    0.00</time>
   <time name="total">    0.10    0.10</time>
   <energy>
    <i name="e_fr_energy">      1.69505161 </i>
    <i name="e_wo_entrp">      1.69567251 </i>
    <i name="e_0_energy">      1.69525858 </i>
   </energy>
  </scstep>
  <scstep>
   <time name="diag">    0.04    0.04</time>
   <time name="diis">    0.06    0.06</time>
   <time name="orth">    0.00    0.00</time>
   <time name="total">    0.10    0.10</time>
   <energy>
    <i name="e_fr_energy">    -13.56861243 </i>
    <i name="e_wo_entrp">    -13.56776126 </i>
    <i name="e_0_energy">    -13.56832870 </i>
   </energy>
  </scstep>
  <scstep>
   <time name="diag">    0.04    0.04</time>
   <time name="diis">    0.06    0.06</time>
   <time name="orth">    0.00    0.00</time>
   <time name="total">    0.10    0.10</time>
   <energy>
    <i name="e_fr_energy">    -17.50598285 </i>
    <i name="e_wo_entrp">    -17.50607344 </i>
    <i name="e_0_energy">    -17.50601305 </i>
   </energy>
  </scstep>
  <scstep>
   <time name="diag">    0.04    0.04</time>
   <time name="diis">    0.06    0.06</time>
   <time name="orth">    0.00    0.00</time>
   <time name="total">    0.10    0.10</time>
   <energy>
    <i name="e_fr_energy">    -18.25270434 </i>
    <i name="e_wo_entrp">    -18.25279493 </i>
    <i name="e_0_energy">    -18.25273454 </i>
   </energy>
  </scstep>
  <scstep>
   <time name="diag">    0.04    0.04</time>
   <time name="diis">    0.06    0.06</time>
   <time name="orth">    0.00    0.00</time>
   <time name="total">    0.10    0.10</time>
   <energy>
    <i name="e_fr_energy">    -18.43593915 </i>
    <i name="e_wo_entrp">    -18.43602974 </i>
    <i name="e_0_energy">    -18.43596935 </i>
   </energy>
  </scstep>
  <scstep>
   <time name="diag">    0.04    0.04</time>
   <time name="diis">    0.06    0.06</time>
   <time name="orth">    0.00    0.00</time>
   <time name="total">    0.10    0.10</time>
   <energy>
    <i name="e_fr_energy">    -18.49131180 </i>
    <i name="e_wo_entrp">    -18.49157313 </i>
    <i name="e_0_energy">    -18.49139891 </i>
   </energy>
  </scstep>
  <scstep>
   <time name="diag">    0.04    0.04</time>
   <time name="diis">    0.06    0.06</time>
   <time name="orth">    0.00    0.00</time>
   <time name="total">    0.10    0.10</time>
   <energy>
    <i name="e_fr_energy">    -18.50174928 </i>
    <i name="e_wo_entrp">    -18.50202340 </i>
    <i name="e_0_energy">    -18.50184065 </i>
   </energy>
  </scstep>
  <scstep>
   <time name="diag">    0.04    0.04</time>
   <time name="diis">    0.12    0.12</time>
   <time name="orth">    0.00    0.00</time>
   <time name="total">    0.16    0.16</time>
   <energy>
    <i name="e_fr_energy">    -18.50371206 </i>
    <i name="e_wo_entrp">    -18.50398389 </i>
    <i name="e_0_energy">    -18.50380267 </i>
   </energy>
  </scstep>
  <scstep>
   <time name="diag">    0.04    0.04</time>
   <time name="diis">    0.11    0.11</time>
   <time name="orth">    0.00    0.00</time>
   <time name="total">    0.15    0.15</time>
   <energy>
    <i name="e_fr_energy">    -18.50423085 </i>
    <i name="e_wo_entrp">    -18.50450262 </i>
    <i name="e_0_energy">    -18.50432144 </i>
   </energy>
  </scstep>
  <scstep>
   <time name="diag">    0.04    0.04</time>
   <time name="diis">    0.11    0.11</time>
   <time name="orth">    0.00    0.00</time>
   <time name="total">    0.15    0.15</time>
   <energy>
    <i name="e_fr_energy">    -18.50429052 </i>
    <i name="e_wo_entrp">    -18.50456230 </i>
    <i name="e_0_energy">    -18.50438112 </i>
   </energy>
  </scstep>
  <scstep>
   <time name="diag">    0.04    0.04</time>
   <time name="diis">    0.10    0.10</time>
   <time name="orth">    0.00    0.00</time>
   <time name="total">    0.15    0.15</time>
   <energy>
    <i name="e_fr_energy">    -18.50429713 </i>
    <i name="e_wo_entrp">    -18.50456890 </i>
    <i name="e_0_energy">    -18.50438772 </i>
   </energy>
  </scstep>
  <scstep>
   <time name="diag">    0.04    0.04</time>
   <time name="diis">    0.16    0.16</time>
   <time name="orth">    0.00    0.00</time>
   <time name="total">    0.22    0.22</time>
   <energy>
    <i name="e_fr_energy">    -18.27893900 </i>
    <i name="e_wo_entrp">    -18.27921077 </i>
    <i name="e_0_energy">    -18.27902959 </i>
   </energy>
  </scstep>
  <scstep>
   <time name="diag">    0.04    0.04</time>
   <time name="diis">    0.18    0.18</time>
   <time name="orth">    0.00    0.00</time>
   <time name="total">    0.24    0.24</time>
   <energy>
    <i name="e_fr_energy">    -17.98772793 </i>
    <i name="e_wo_entrp">    -17.98799971 </i>
    <i name="e_0_energy">    -17.98781852 </i>
   </energy>
  </scstep>
  <scstep>
   <time name="diag">    0.04    0.04</time>
   <time name="diis">    0.11    0.11</time>
   <time name="orth">    0.00    0.00</time>
   <time name="total">    0.17    0.17</time>
   <energy>
    <i name="e_fr_energy">    -17.98941191 </i>
    <i name="e_wo_entrp">    -17.98968368 </i>
    <i name="e_0_energy">    -17.98950250 </i>
   </energy>
  </scstep>
  <scstep>
   <time name="diag">    0.04    0.04</time>
   <time name="diis">    0.10    0.10</time>
   <time name="orth">    0.00    0.00</time>
   <time name="total">    0.15    0.15</time>
   <energy>
    <i name="e_fr_energy">    -17.98942865 </i>
    <i name="e_wo_entrp">    -17.98970043 </i>
    <i name="e_0_energy">    -17.98951924 </i>
   </energy>
  </scstep>
  <scstep>
   <time name="diag">    0.04    0.04</time>
   <time name="diis">    0.10    0.10</time>
   <time name="orth">    0.00    0.00</time>
   <time name="total">    0.15    0.15</time>
   <energy>
    <i name="e_fr_energy">    -17.98949701 </i>
    <i name="e_wo_entrp">    -17.98976879 </i>
    <i name="e_0_energy">    -17.98958760 </i>
   </energy>
  </scstep>
  <scstep>
   <time name="diag">    0.04    0.04</time>
   <time name="diis">    0.11    0.11</time>
   <time name="orth">    0.00    0.00</time>
   <time name="total">    0.16    0.16</time>
   <energy>
    <i name="e_fr_energy">    -17.98949418 </i>
    <i name="e_wo_entrp">    -17.98976596 </i>
    <i name="e_0_energy">    -17.98958477 </i>
   </energy>
  </scstep>
  <scstep>
   <time name="diag">    0.04    0.04</time>
   <time name="diis">    0.08    0.08</time>
   <time name="orth">    0.00    0.00</time>
   <time name="total">    0.13    0.13</time>
   <energy>
    <i name="alphaZ">     26.74844880 </i>
    <i name="ewald">   -338.84641273 </i>
    <i name="hartreedc">    -27.76418258 </i>
    <i name="XCdc">     27.67883343 </i>
    <i name="pawpsdc">    677.24130048 </i>
    <i name="pawaedc">   -678.54211838 </i>
    <i name="eentropy">      0.00027178 </i>
    <i name="bandstr">      1.18551802 </i>
    <i name="atom">    294.30884690 </i>
    <i name="e_fr_energy">    -17.98949428 </i>
    <i name="e_wo_entrp">    -17.98976605 </i>
    <i name="e_0_energy">    -17.98958487 </i>
   </energy>
  </scstep>
  <structure>
   <crystal>
    <varray name="basis" >
     <v>       2.58993500       0.00000000       0.00000000 </v>
     <v>       1.29496750       2.24294950       0.00000000 </v>
     <v>       1.29496750       0.74764983       2.11467307 </v>
    </varray>
    <i name="volume">     12.28433344 </i>
    <varray name="rec_basis" >
     <v>       0.38611008      -0.22292076      -0.15762878 </v>
     <v>       0.00000000       0.44584151      -0.15762878 </v>
     <v>       0.00000000       0.00000000       0.47288634 </v>
    </varray>
   </crystal>
   <varray name="positions" >
    <v>       0.00000000       0.00000000       0.00000000 </v>
    <v>       0.25000000       0.25000000       0.25000000 </v>
   </varray>
  </structure>
  <varray name="forces" >
   <v>       0.00002579       0.00003935       0.00002408 </v>
   <v>      -0.00002579      -0.00003935      -0.00002408 </v>
  </varray>
  <varray name="stress" >
   <v>    -305.00888711      -0.00291630      -0.00245969 </v>
   <v>      -0.00291626    -304.99306533      -0.00596616 </v>
   <v>      -0.00245981      -0.00596624    -304.98865757 </v>
  </varray>
  <energy>
   <i name="e_fr_energy">    -18.39955889 </i>
   <i name="e_wo_entrp">    -18.39983066 </i>
   <i name="e_0_energy">    -18.39964948 </i>
  </energy>
  <time name="totalsc">    2.71    2.71</time>
  <eigenvalues>
   <array>
    <dimension dim="1">band</dimension>
    <dimension dim="2">kpoint</dimension>
    <dimension dim="3">spin</dimension>
    <field>eigene</field>
    <field>occ</field>
    <set>
     <set comment="spin 1">
      <set comment="kpoint 1">
       <r>  -11.8068    1.0000 </r>
       <r>    8.6386    1.0000 </r>
       <r>    8.6386    1.0000 </r>
       <r>    8.6387    1.0000 </r>
       <r>   14.0036    0.0000 </r>
       <r>   14.0036    0.0000 </r>
       <r>   14.0037    0.0000 </r>
       <r>   20.1938    0.0000 </r>
      </set>
      <set comment="kpoint 2">
       <r>  -10.1866    1.0000 </r>
       <r>    2.4045    1.0000 </r>
       <r>    7.0236    1.0000 </r>
       <r>    7.0236    1.0000 </r>
       <r>   16.0412    0.0000 </r>
       <r>   16.0518    0.0000 </r>
       <r>   16.0518    0.0000 </r>
       <r>   21.9852    0.0000 </r>
      </set>
      <set comment="kpoint 3">
       <r>  -10.1866    1.0000 </r>
       <r>    2.4046    1.0000 </r>
       <r>    7.0236    1.0000 </r>
       <r>    7.0236    1.0000 </r>
       <r>   16.0412    0.0000 </r>
       <r>   16.0518    0.0000 </r>
       <r>   16.0518    0.0000 </r>
       <r>   21.9852    0.0000 </r>
      </set>
      <set comment="kpoint 4">
       <r>  -10.1866    1.0000 </r>
       <r>    2.4046    1.0000 </r>
       <r>    7.0236    1.0000 </r>
       <r>    7.0236    1.0000 </r>
       <r>   16.0412    0.0000 </r>
       <r>   16.0518    0.0000 </r>
       <r>   16.0518    0.0000 </r>
       <r>   21.9852    0.0000 </r>
      </set>
      <set comment="kpoint 5">
       <r>  -10.1866    1.0000 </r>
       <r>    2.4045    1.0000 </r>
       <r>    7.0236    1.0000 </r>
       <r>    7.0236    1.0000 </r>
       <r>   16.0412    0.0000 </r>
       <r>   16.0518    0.0000 </r>
       <r>   16.0518    0.0000 </r>
       <r>   28.6014    0.0000 </r>
      </set>
      <set comment="kpoint 6">
       <r>   -6.4713    1.0000 </r>
       <r>   -3.8941    1.0000 </r>
       <r>    6.0359    1.0000 </r>
       <r>    6.0360    1.0000 </r>
       <r>   16.4300    0.0000 </r>
       <r>   16.7529    0.0000 </r>
       <r>   16.7529    0.0000 </r>
       <r>   23.5777    0.0000 </r>
      </set>
      <set comment="kpoint 7">
       <r>   -6.4713    1.0000 </r>
       <r>   -3.8941    1.0000 </r>
       <r>    6.0359    1.0000 </r>
       <r>    6.0360    1.0000 </r>
       <r>   16.4300    0.0000 </r>
       <r>   16.7529    0.0000 </r>
       <r>   16.7529    0.0000 </r>
       <r>   23.5777    0.0000 </r>
      </set>
      <set comment="kpoint 8">
       <r>   -6.4713    1.0000 </r>
       <r>   -3.8941    1.0000 </r>
       <r>    6.0359    1.0000 </r>
       <r>    6.0360    1.0000 </r>
       <r>   16.4300    0.0000 </r>
       <r>   16.7529    0.0000 </r>
       <r>   16.7529    0.0000 </r>
       <r>   23.5777    0.0000 </r>
      </set>
      <set comment="kpoint 9">
       <r>   -6.4712    1.0000 </r>
       <r>   -3.8941    1.0000 </r>
       <r>    6.0359    1.0000 </r>
       <r>    6.0360    1.0000 </r>
       <r>   16.4301    0.0000 </r>
       <r>   16.7529    0.0000 </r>
       <r>   16.7529    0.0000 </r>
       <r>   23.5777    0.0000 </r>
      </set>
      <set comment="kpoint 10">
       <r>   -9.6470    1.0000 </r>
       <r>    4.2050    1.0000 </r>
       <r>    4.8331    1.0000 </r>
       <r>    4.8331    1.0000 </r>
       <r>   12.8793    0.0000 </r>
       <r>   18.2912    0.0000 </r>
       <r>   19.5174    0.0000 </r>
       <r>   19.5174    0.0000 </r>
      </set>
      <set comment="kpoint 11">
       <r>   -9.6470    1.0000 </r>
       <r>    4.2050    1.0000 </r>
       <r>    4.8331    1.0000 </r>
       <r>    4.8331    1.0000 </r>
       <r>   12.8793    0.0000 </r>
       <r>   18.2912    0.0000 </r>
       <r>   19.5174    0.0000 </r>
       <r>   19.5174    0.0000 </r>
      </set>
      <set comment="kpoint 12">
       <r>   -9.6470    1.0000 </r>
       <r>    4.2050    1.0000 </r>
       <r>    4.8331    1.0000 </r>
       <r>    4.8331    1.0000 </r>
       <r>   12.8793    0.0000 </r>
       <r>   18.2912    0.0000 </r>
       <r>   19.5174    0.0000 </r>
       <r>   19.5174    0.0000 </r>
      </set>
      <set comment="kpoint 13">
       <r>   -6.1517    1.0000 </r>
       <r>   -1.6034    1.0000 </r>
       <r>    2.3050    1.0000 </r>
       <r>    4.1234    1.0000 </r>
       <r>   14.4529    0.0000 </r>
       <r>   19.4090    0.0000 </r>
       <r>   20.6934    0.0000 </r>
       <r>   20.9844    0.0000 </r>
      </set>
      <set comment="kpoint 14">
       <r>   -6.1517    1.0000 </r>
       <r>   -1.6033    1.0000 </r>
       <r>    2.3050    1.0000 </r>
       <r>    4.1234    1.0000 </r>
       <r>   14.4529    0.0000 </r>
       <r>   19.4090    0.0000 </r>
       <r>   20.6934    0.0000 </r>
       <r>   20.9844    0.0000 </r>
      </set>
      <set comment="kpoint 15">
       <r>   -6.1517    1.0000 </r>
       <r>   -1.6033    1.0000 </r>
       <r>    2.3050    1.0000 </r>
       <r>    4.1234    1.0000 </r>
       <r>   14.4529    0.0000 </r>
       <r>   19.4090    0.0000 </r>
       <r>   20.6933    0.0000 </r>
       <r>   20.9844    0.0000 </r>
      </set>
      <set comment="kpoint 16">
       <r>   -6.1517    1.0000 </r>
       <r>   -1.6033    1.0000 </r>
       <r>    2.3049    1.0000 </r>
       <r>    4.1234    1.0000 </r>
       <r>   14.4529    0.0000 </r>
       <r>   19.4090    0.0000 </r>
       <r>   20.6933    0.0000 </r>
       <r>   20.9844    0.0000 </r>
      </set>
      <set comment="kpoint 17">
       <r>   -6.1517    1.0000 </r>
       <r>   -1.6034    1.0000 </r>
       <r>    2.3050    1.0000 </r>
       <r>    4.1234    1.0000 </r>
       <r>   14.4529    0.0000 </r>
       <r>   19.4090    0.0000 </r>
       <r>   20.6934    0.0000 </r>
       <r>   20.9844    0.0000 </r>
      </set>
      <set comment="kpoint 18">
       <r>   -6.1517    1.0000 </r>
       <r>   -1.6033    1.0000 </r>
       <r>    2.3050    1.0000 </r>
       <r>    4.1234    1.0000 </r>
       <r>   14.4529    0.0000 </r>
       <r>   19.4090    0.0000 </r>
       <r>   20.6933    0.0000 </r>
       <r>   20.9844    0.0000 </r>
      </set>
      <set comment="kpoint 19">
       <r>   -6.1517    1.0000 </r>
       <r>   -1.6034    1.0000 </r>
       <r>    2.3050    1.0000 </r>
       <r>    4.1234    1.0000 </r>
       <r>   14.4529    0.0000 </r>
       <r>   19.4090    0.0000 </r>
       <r>   20.6933    0.0000 </r>
       <r>   20.9844    0.0000 </r>
      </set>
      <set comment="kpoint 20">
       <r>   -6.1517    1.0000 </r>
       <r>   -1.6034    1.0000 </r>
       <r>    2.3050    1.0000 </r>
       <r>    4.1234    1.0000 </r>
       <r>   14.4529    0.0000 </r>
       <r>   19.4090    0.0000 </r>
       <r>   20.6934    0.0000 </r>
       <r>   20.9844    0.0000 </r>
      </set>
      <set comment="kpoint 21">
       <r>   -6.1517    1.0000 </r>
       <r>   -1.6033    1.0000 </r>
       <r>    2.3050    1.0000 </r>
       <r>    4.1234    1.0000 </r>
       <r>   14.4529    0.0000 </r>
       <r>   19.4090    0.0000 </r>
       <r>   20.6934    0.0000 </r>
       <r>   20.9844    0.0000 </r>
      </set>
      <set comment="kpoint 22">
       <r>   -6.1517    1.0000 </r>
       <r>   -1.6033    1.0000 </r>
       <r>    2.3049    1.0000 </r>
       <r>    4.1234    1.0000 </r>
       <r>   14.4529    0.0000 </r>
       <r>   19.4090    0.0000 </r>
       <r>   20.6933    0.0000 </r>
       <r>   20.9844    0.0000 </r>
      </set>
      <set comment="kpoint 23">
       <r>   -6.1517    1.0000 </r>
       <r>   -1.6034    1.0000 </r>
       <r>    2.3050    1.0000 </r>
       <r>    4.1234    1.0000 </r>
       <r>   14.4529    0.0000 </r>
       <r>   19.4090    0.0000 </r>
       <r>   20.6933    0.0000 </r>
       <r>   20.9844    0.0000 </r>
      </set>
      <set comment="kpoint 24">
       <r>   -6.1517    1.0000 </r>
       <r>   -1.6034    1.0000 </r>
       <r>    2.3050    1.0000 </r>
       <r>    4.1234    1.0000 </r>
       <r>   14.4529    0.0000 </r>
       <r>   19.4090    0.0000 </r>
       <r>   20.6934    0.0000 </r>
       <r>   20.9844    0.0000 </r>
      </set>
      <set comment="kpoint 25">
       <r>   -7.5995    1.0000 </r>
       <r>    0.3123    1.0000 </r>
       <r>    1.5618    1.0000 </r>
       <r>    5.8474    1.0000 </r>
       <r>   16.1321    0.0000 </r>
       <r>   18.0976    0.0000 </r>
       <r>   20.1638    0.0000 </r>
       <r>   21.4176    0.0000 </r>
      </set>
      <set comment="kpoint 26">
       <r>   -7.5995    1.0000 </r>
       <r>    0.3123    1.0000 </r>
       <r>    1.5617    1.0000 </r>
       <r>    5.8474    1.0000 </r>
       <r>   16.1321    0.0000 </r>
       <r>   18.0976    0.0000 </r>
       <r>   20.1638    0.0000 </r>
       <r>   21.4176    0.0000 </r>
      </set>
      <set comment="kpoint 27">
       <r>   -7.5995    1.0000 </r>
       <r>    0.3123    1.0000 </r>
       <r>    1.5618    1.0000 </r>
       <r>    5.8474    1.0000 </r>
       <r>   16.1321    0.0000 </r>
       <r>   18.0976    0.0000 </r>
       <r>   20.1638    0.0000 </r>
       <r>   21.4176    0.0000 </r>
      </set>
      <set comment="kpoint 28">
       <r>   -7.5995    1.0000 </r>
       <r>    0.3123    1.0000 </r>
       <r>    1.5618    1.0000 </r>
       <r>    5.8474    1.0000 </r>
       <r>   16.1322    0.0000 </r>
       <r>   18.0976    0.0000 </r>
       <r>   20.1638    0.0000 </r>
       <r>   21.4176    0.0000 </r>
      </set>
      <set comment="kpoint 29">
       <r>   -7.5995    1.0000 </r>
       <r>    0.3123    1.0000 </r>
       <r>    1.5618    1.0000 </r>
       <r>    5.8474    1.0000 </r>
       <r>   16.1322    0.0000 </r>
       <r>   18.0976    0.0000 </r>
       <r>   20.1638    0.0000 </r>
       <r>   21.4176    0.0000 </r>
      </set>
      <set comment="kpoint 30">
       <r>   -7.5995    1.0000 </r>
       <r>    0.3122    1.0000 </r>
       <r>    1.5618    1.0000 </r>
       <r>    5.8474    1.0000 </r>
       <r>   16.1322    0.0000 </r>
       <r>   18.0976    0.0000 </r>
       <r>   21.2879    0.0000 </r>
       <r>   27.5555    0.0000 </r>
      </set>
      <set comment="kpoint 31">
       <r>   -3.5898    1.0000 </r>
       <r>   -3.5898    1.0000 </r>
       <r>    2.8017    1.0000 </r>
       <r>    2.8017    1.0000 </r>
       <r>   13.2165    0.0000 </r>
       <r>   13.2165    0.0000 </r>
       <r>   24.2675    0.0000 </r>
       <r>   24.2675    0.0000 </r>
      </set>
      <set comment="kpoint 32">
       <r>   -3.5898    1.0000 </r>
       <r>   -3.5898    1.0000 </r>
       <r>    2.8017    1.0000 </r>
       <r>    2.8017    1.0000 </r>
       <r>   13.2165    0.0000 </r>
       <r>   13.2165    0.0000 </r>
       <r>   24.2675    0.0000 </r>
       <r>   30.4378    0.0000 </r>
      </set>
      <set comment="kpoint 33">
       <r>   -3.5898    1.0000 </r>
       <r>   -3.5898    1.0000 </r>
       <r>    2.8017    1.0000 </r>
       <r>    2.8017    1.0000 </r>
       <r>   13.2165    0.0000 </r>
       <r>   13.2165    0.0000 </r>
       <r>   24.2675    0.0000 </r>
       <r>   24.2675    0.0000 </r>
      </set>
      <set comment="kpoint 34">
       <r>   -2.9185    1.0000 </r>
       <r>   -2.9184    1.0000 </r>
       <r>    0.9719    1.0000 </r>
       <r>    0.9719    1.0000 </r>
       <r>   18.8892    0.0000 </r>
       <r>   18.8892    0.0000 </r>
       <r>   19.9491    0.0000 </r>
       <r>   19.9492    0.0000 </r>
      </set>
      <set comment="kpoint 35">
       <r>   -2.9185    1.0000 </r>
       <r>   -2.9184    1.0000 </r>
       <r>    0.9719    1.0000 </r>
       <r>    0.9719    1.0000 </r>
       <r>   18.8892    0.0000 </r>
       <r>   18.8892    0.0000 </r>
       <r>   19.9491    0.0000 </r>
       <r>   19.9492    0.0000 </r>
      </set>
      <set comment="kpoint 36">
       <r>   -2.9185    1.0000 </r>
       <r>   -2.9184    1.0000 </r>
       <r>    0.9719    1.0000 </r>
       <r>    0.9719    1.0000 </r>
       <r>   18.8892    0.0000 </r>
       <r>   18.8892    0.0000 </r>
       <r>   19.9491    0.0000 </r>
       <r>   19.9492    0.0000 </r>
      </set>
     </set>
    </set>
   </array>
  </eigenvalues>
  <separator name="orbital magnetization" >
   <v name="MAGDIPOLOUT">      0.00000000      0.00000000      0.00000000</v>
  </separator>
  <dos>
   <i name="efermi">      8.72282618 </i>
   <total>
    <array>
     <dimension dim="1">gridpoints</dimension>
     <dimension dim="2">spin</dimension>
     <field>energy</field>
     <field>total</field>
     <field>integrated</field>
     <set>
      <set comment="spin 1">
       <r>   -13.9190     0.0000     0.0000 </r>
       <r>   -13.7641     0.0000     0.0000 </r>
       <r>   -13.6092     0.0000     0.0000 </r>
       <r>   -13.4543     0.0000     0.0000 </r>
       <r>   -13.2994     0.0000     0.0000 </r>
       <r>   -13.1445     0.0000     0.0000 </r>
       <r>   -12.9896     0.0000     0.0000 </r>
       <r>   -12.8347     0.0000     0.0000 </r>
       <r>   -12.6798    -0.0000    -0.0000 </r>
       <r>   -12.5249    -0.0000    -0.0000 </r>
       <r>   -12.3700    -0.0000    -0.0000 </r>
       <r>   -12.2151    -0.0000    -0.0000 </r>
       <r>   -12.0602    -0.0002    -0.0000 </r>
       <r>   -11.9053    -0.0046    -0.0007 </r>
       <r>   -11.7504     0.1869     0.0282 </r>
       <r>   -11.5955     0.0207     0.0314 </r>
       <r>   -11.4407    -0.0011     0.0313 </r>
       <r>   -11.2858    -0.0000     0.0313 </r>
       <r>   -11.1309    -0.0000     0.0312 </r>
       <r>   -10.9760    -0.0000     0.0312 </r>
       <r>   -10.8211    -0.0000     0.0312 </r>
       <r>   -10.6662    -0.0000     0.0312 </r>
       <r>   -10.5113    -0.0000     0.0312 </r>
       <r>   -10.3564    -0.0300     0.0266 </r>
       <r>   -10.2015     0.6357     0.1251 </r>
       <r>   -10.0466     1.0596     0.2892 </r>
       <r>    -9.8917    -0.0529     0.2810 </r>
       <r>    -9.7368    -0.0118     0.2792 </r>
       <r>    -9.5819     1.1531     0.4578 </r>
       <r>    -9.4270     0.0756     0.4695 </r>
       <r>    -9.2721    -0.0048     0.4688 </r>
       <r>    -9.1172    -0.0000     0.4688 </r>
       <r>    -8.9623    -0.0000     0.4688 </r>
       <r>    -8.8074     0.0000     0.4688 </r>
       <r>    -8.6525     0.0000     0.4688 </r>
       <r>    -8.4976    -0.0000     0.4688 </r>
       <r>    -8.3427    -0.0000     0.4688 </r>
       <r>    -8.1878    -0.0000     0.4687 </r>
       <r>    -8.0329    -0.0000     0.4687 </r>
       <r>    -7.8780    -0.0007     0.4686 </r>
       <r>    -7.7231    -0.0851     0.4555 </r>
       <r>    -7.5682     1.9040     0.7504 </r>
       <r>    -7.4133     0.6323     0.8483 </r>
       <r>    -7.2584    -0.0294     0.8438 </r>
       <r>    -7.1035    -0.0000     0.8438 </r>
       <r>    -6.9486    -0.0000     0.8437 </r>
       <r>    -6.7937    -0.0000     0.8437 </r>
       <r>    -6.6388    -0.0158     0.8413 </r>
       <r>    -6.4840     0.3334     0.8929 </r>
       <r>    -6.3291     0.4395     0.9610 </r>
       <r>    -6.1742     1.5768     1.2052 </r>
       <r>    -6.0193     3.4803     1.7443 </r>
       <r>    -5.8644    -0.1643     1.7189 </r>
       <r>    -5.7095    -0.0009     1.7188 </r>
       <r>    -5.5546    -0.0000     1.7188 </r>
       <r>    -5.3997    -0.0000     1.7188 </r>
       <r>    -5.2448     0.0000     1.7188 </r>
       <r>    -5.0899     0.0000     1.7188 </r>
       <r>    -4.9350     0.0000     1.7188 </r>
       <r>    -4.7801    -0.0000     1.7188 </r>
       <r>    -4.6252    -0.0000     1.7188 </r>
       <r>    -4.4703    -0.0000     1.7187 </r>
       <r>    -4.3154    -0.0000     1.7187 </r>
       <r>    -4.1605    -0.0004     1.7187 </r>
       <r>    -4.0056    -0.0264     1.7146 </r>
       <r>    -3.8507     0.6973     1.8226 </r>
       <r>    -3.6958     0.1067     1.8391 </r>
       <r>    -3.5409     1.0755     2.0057 </r>
       <r>    -3.3860     0.1734     2.0326 </r>
       <r>    -3.2311    -0.0087     2.0312 </r>
       <r>    -3.0762    -0.0582     2.0222 </r>
       <r>    -2.9213     1.2098     2.2096 </r>
       <r>    -2.7664     1.3343     2.4163 </r>
       <r>    -2.6115    -0.0646     2.4063 </r>
       <r>    -2.4566    -0.0002     2.4063 </r>
       <r>    -2.3017    -0.0000     2.4062 </r>
       <r>    -2.1468    -0.0000     2.4062 </r>
       <r>    -1.9919    -0.0000     2.4062 </r>
       <r>    -1.8370    -0.0113     2.4045 </r>
       <r>    -1.6822     0.0747     2.4161 </r>
       <r>    -1.5273     4.6787     3.1408 </r>
       <r>    -1.3724     0.1124     3.1582 </r>
       <r>    -1.2175    -0.0126     3.1563 </r>
       <r>    -1.0626    -0.0000     3.1563 </r>
       <r>    -0.9077    -0.0000     3.1562 </r>
       <r>    -0.7528     0.0000     3.1562 </r>
       <r>    -0.5979    -0.0000     3.1562 </r>
       <r>    -0.4430    -0.0000     3.1562 </r>
       <r>    -0.2881    -0.0000     3.1562 </r>
       <r>    -0.1332    -0.0000     3.1562 </r>
       <r>     0.0217    -0.0004     3.1562 </r>
       <r>     0.1766    -0.0801     3.1438 </r>
       <r>     0.3315     1.6773     3.4036 </r>
       <r>     0.4864     0.8648     3.5375 </r>
       <r>     0.6413    -0.0406     3.5313 </r>
       <r>     0.7962    -0.0391     3.5252 </r>
       <r>     0.9511     0.8341     3.6544 </r>
       <r>     1.1060     1.7075     3.9189 </r>
       <r>     1.2609    -0.0813     3.9063 </r>
       <r>     1.4158    -0.0714     3.8952 </r>
       <r>     1.5707     1.4637     4.1220 </r>
       <r>     1.7256     1.0800     4.2892 </r>
       <r>     1.8805    -0.0515     4.2813 </r>
       <r>     2.0354    -0.0023     4.2809 </r>
       <r>     2.1903    -0.1724     4.2542 </r>
       <r>     2.3452     4.2382     4.9107 </r>
       <r>     2.5001     2.4695     5.2932 </r>
       <r>     2.6550    -0.1105     5.2761 </r>
       <r>     2.8099     0.7220     5.3879 </r>
       <r>     2.9648     0.5480     5.4728 </r>
       <r>     3.1197    -0.0262     5.4688 </r>
       <r>     3.2745    -0.0000     5.4688 </r>
       <r>     3.4294    -0.0000     5.4688 </r>
       <r>     3.5843    -0.0000     5.4687 </r>
       <r>     3.7392    -0.0000     5.4687 </r>
       <r>     3.8941    -0.0135     5.4667 </r>
       <r>     4.0490     0.1088     5.4835 </r>
       <r>     4.2039     5.2992     6.3043 </r>
       <r>     4.3588     0.6998     6.4127 </r>
       <r>     4.5137    -0.0419     6.4062 </r>
       <r>     4.6686    -0.0508     6.3984 </r>
       <r>     4.8235     1.0655     6.5634 </r>
       <r>     4.9784     1.4782     6.7924 </r>
       <r>     5.1333    -0.0717     6.7813 </r>
       <r>     5.2882    -0.0002     6.7813 </r>
       <r>     5.4431    -0.0000     6.7812 </r>
       <r>     5.5980    -0.0029     6.7808 </r>
       <r>     5.7529    -0.0422     6.7743 </r>
       <r>     5.9078     2.2200     7.1181 </r>
       <r>     6.0627     1.4157     7.3374 </r>
       <r>     6.2176     0.4666     7.4097 </r>
       <r>     6.3725    -0.0223     7.4063 </r>
       <r>     6.5274    -0.0000     7.4062 </r>
       <r>     6.6823    -0.0000     7.4062 </r>
       <r>     6.8372    -0.0390     7.4002 </r>
       <r>     6.9921     0.8371     7.5299 </r>
       <r>     7.1470     2.5443     7.9240 </r>
       <r>     7.3019    -0.1135     7.9064 </r>
       <r>     7.4568    -0.0010     7.9063 </r>
       <r>     7.6117    -0.0000     7.9063 </r>
       <r>     7.7666    -0.0000     7.9062 </r>
       <r>     7.9215    -0.0000     7.9062 </r>
       <r>     8.0764    -0.0000     7.9062 </r>
       <r>     8.2312    -0.0000     7.9062 </r>
       <r>     8.3861    -0.0006     7.9062 </r>
       <r>     8.5410    -0.0130     7.9041 </r>
       <r>     8.6959     0.5629     7.9913 </r>
       <r>     8.8508     0.0592     8.0005 </r>
       <r>     9.0057    -0.0032     8.0000 </r>
       <r>     9.1606    -0.0000     8.0000 </r>
       <r>     9.3155    -0.0000     8.0000 </r>
       <r>     9.4704     0.0000     8.0000 </r>
       <r>     9.6253     0.0000     8.0000 </r>
       <r>     9.7802     0.0000     8.0000 </r>
       <r>     9.9351     0.0000     8.0000 </r>
       <r>    10.0900     0.0000     8.0000 </r>
       <r>    10.2449     0.0000     8.0000 </r>
       <r>    10.3998     0.0000     8.0000 </r>
       <r>    10.5547     0.0000     8.0000 </r>
       <r>    10.7096     0.0000     8.0000 </r>
       <r>    10.8645     0.0000     8.0000 </r>
       <r>    11.0194     0.0000     8.0000 </r>
       <r>    11.1743     0.0000     8.0000 </r>
       <r>    11.3292     0.0000     8.0000 </r>
       <r>    11.4841     0.0000     8.0000 </r>
       <r>    11.6390     0.0000     8.0000 </r>
       <r>    11.7939     0.0000     8.0000 </r>
       <r>    11.9488    -0.0000     8.0000 </r>
       <r>    12.1037    -0.0000     8.0000 </r>
       <r>    12.2586    -0.0000     8.0000 </r>
       <r>    12.4135    -0.0000     8.0000 </r>
       <r>    12.5684    -0.0001     8.0000 </r>
       <r>    12.7233    -0.0301     7.9953 </r>
       <r>    12.8782     0.6240     8.0920 </r>
       <r>    13.0331     0.6321     8.1899 </r>
       <r>    13.1879     0.3100     8.2379 </r>
       <r>    13.3428     0.9277     8.3816 </r>
       <r>    13.4977    -0.0423     8.3750 </r>
       <r>    13.6526    -0.0003     8.3750 </r>
       <r>    13.8075    -0.0055     8.3742 </r>
       <r>    13.9624     0.1156     8.3921 </r>
       <r>    14.1173     0.5157     8.4719 </r>
       <r>    14.2722    -0.0889     8.4582 </r>
       <r>    14.4271     1.4707     8.6860 </r>
       <r>    14.5820     3.6082     9.2449 </r>
       <r>    14.7369    -0.1676     9.2189 </r>
       <r>    14.8918    -0.0011     9.2188 </r>
       <r>    15.0467    -0.0000     9.2188 </r>
       <r>    15.2016    -0.0000     9.2188 </r>
       <r>    15.3565    -0.0000     9.2188 </r>
       <r>    15.5114    -0.0000     9.2187 </r>
       <r>    15.6663    -0.0000     9.2187 </r>
       <r>    15.8212    -0.0150     9.2164 </r>
       <r>    15.9761     0.1190     9.2349 </r>
       <r>    16.1310     5.9032    10.1492 </r>
       <r>    16.2859     1.3040    10.3512 </r>
       <r>    16.4408     0.4281    10.4175 </r>
       <r>    16.5957     0.3078    10.4652 </r>
       <r>    16.7506     0.7984    10.5889 </r>
       <r>    16.9055     0.8811    10.7254 </r>
       <r>    17.0604    -0.0426    10.7188 </r>
       <r>    17.2153    -0.0001    10.7188 </r>
       <r>    17.3702    -0.0000    10.7188 </r>
       <r>    17.5251    -0.0000    10.7187 </r>
       <r>    17.6800    -0.0000    10.7187 </r>
       <r>    17.8349    -0.0016    10.7185 </r>
       <r>    17.9898    -0.0747    10.7069 </r>
       <r>    18.1446     2.1075    11.0334 </r>
       <r>    18.2995     1.0979    11.2034 </r>
       <r>    18.4544     0.5285    11.2853 </r>
       <r>    18.6093    -0.0268    11.2812 </r>
       <r>    18.7642    -0.0850    11.2680 </r>
       <r>    18.9191     1.8801    11.5592 </r>
       <r>    19.0740     0.6570    11.6610 </r>
       <r>    19.2289    -0.1007    11.6454 </r>
       <r>    19.3838     1.4137    11.8644 </r>
       <r>    19.5387     5.3034    12.6858 </r>
       <r>    19.6936     0.6534    12.7870 </r>
       <r>    19.8485    -0.0999    12.7716 </r>
       <r>    20.0034     2.1750    13.1085 </r>
       <r>    20.1583     1.2819    13.3070 </r>
       <r>    20.3132     1.3092    13.5098 </r>
       <r>    20.4681    -0.0790    13.4976 </r>
       <r>    20.6230     0.2039    13.5292 </r>
       <r>    20.7779     4.6261    14.2457 </r>
       <r>    20.9328     0.6242    14.3424 </r>
       <r>    21.0877     4.3787    15.0207 </r>
       <r>    21.2426    -0.0994    15.0053 </r>
       <r>    21.3975     1.0549    15.1687 </r>
       <r>    21.5524     1.3998    15.3855 </r>
       <r>    21.7073    -0.0679    15.3750 </r>
       <r>    21.8622    -0.0429    15.3684 </r>
       <r>    22.0171     0.9573    15.5166 </r>
       <r>    22.1720     0.3106    15.5647 </r>
       <r>    22.3269    -0.0145    15.5625 </r>
       <r>    22.4818    -0.0000    15.5625 </r>
       <r>    22.6367    -0.0000    15.5625 </r>
       <r>    22.7916    -0.0000    15.5625 </r>
       <r>    22.9465    -0.0000    15.5625 </r>
       <r>    23.1013    -0.0000    15.5625 </r>
       <r>    23.2562    -0.0000    15.5625 </r>
       <r>    23.4111    -0.0162    15.5600 </r>
       <r>    23.5660     0.3408    15.6128 </r>
       <r>    23.7209     0.5070    15.6913 </r>
       <r>    23.8758    -0.0245    15.6875 </r>
       <r>    24.0307    -0.0021    15.6872 </r>
       <r>    24.1856     0.0074    15.6883 </r>
       <r>    24.3405     0.9731    15.8391 </r>
       <r>    24.4954     0.0333    15.8442 </r>
       <r>    24.6503    -0.0030    15.8438 </r>
       <r>    24.8052    -0.0000    15.8438 </r>
       <r>    24.9601    -0.0000    15.8438 </r>
       <r>    25.1150     0.0000    15.8438 </r>
       <r>    25.2699     0.0000    15.8438 </r>
       <r>    25.4248     0.0000    15.8438 </r>
       <r>    25.5797     0.0000    15.8438 </r>
       <r>    25.7346     0.0000    15.8438 </r>
       <r>    25.8895     0.0000    15.8438 </r>
       <r>    26.0444     0.0000    15.8438 </r>
       <r>    26.1993     0.0000    15.8438 </r>
       <r>    26.3542     0.0000    15.8438 </r>
       <r>    26.5091     0.0000    15.8438 </r>
       <r>    26.6640    -0.0000    15.8438 </r>
       <r>    26.8189    -0.0000    15.8438 </r>
       <r>    26.9738    -0.0000    15.8438 </r>
       <r>    27.1287    -0.0000    15.8437 </r>
       <r>    27.2836    -0.0002    15.8437 </r>
       <r>    27.4385    -0.0139    15.8416 </r>
       <r>    27.5934     0.3355    15.8935 </r>
       <r>    27.7483     0.0861    15.9069 </r>
       <r>    27.9032    -0.0040    15.9063 </r>
       <r>    28.0580    -0.0000    15.9063 </r>
       <r>    28.2129    -0.0000    15.9062 </r>
       <r>    28.3678    -0.0009    15.9061 </r>
       <r>    28.5227     0.0064    15.9071 </r>
       <r>    28.6776     0.3899    15.9675 </r>
       <r>    28.8325     0.0092    15.9689 </r>
       <r>    28.9874    -0.0010    15.9688 </r>
       <r>    29.1423    -0.0000    15.9688 </r>
       <r>    29.2972    -0.0000    15.9688 </r>
       <r>    29.4521     0.0000    15.9688 </r>
       <r>    29.6070    -0.0000    15.9688 </r>
       <r>    29.7619    -0.0000    15.9688 </r>
       <r>    29.9168    -0.0000    15.9687 </r>
       <r>    30.0717    -0.0000    15.9687 </r>
       <r>    30.2266    -0.0011    15.9686 </r>
       <r>    30.3815     0.0207    15.9718 </r>
       <r>    30.5364     0.1869    16.0007 </r>
       <r>    30.6913    -0.0046    16.0000 </r>
       <r>    30.8462    -0.0002    16.0000 </r>
       <r>    31.0011    -0.0000    16.0000 </r>
       <r>    31.1560    -0.0000    16.0000 </r>
       <r>    31.3109     0.0000    16.0000 </r>
       <r>    31.4658     0.0000    16.0000 </r>
       <r>    31.6207     0.0000    16.0000 </r>
       <r>    31.7756     0.0000    16.0000 </r>
       <r>    31.9305     0.0000    16.0000 </r>
       <r>    32.0854     0.0000    16.0000 </r>
       <r>    32.2403     0.0000    16.0000 </r>
       <r>    32.3952     0.0000    16.0000 </r>
       <r>    32.5501     0.0000    16.0000 </r>
      </set>
     </set>
    </array>
   </total>
  </dos>
 </calculation>
 <structure name="finalpos" >
  <crystal>
   <varray name="basis" >
    <v>       2.58993500       0.00000000       0.00000000 </v>
    <v>       1.29496750       2.24294950       0.00000000 </v>
    <v>       1.29496750       0.74764983       2.11467307 </v>
   </varray>
   <i name="volume">     12.28433344 </i>
   <varray name="rec_basis" >
    <v>       0.38611008      -0.22292076      -0.15762878 </v>
    <v>       0.00000000       0.44584151      -0.15762878 </v>
    <v>       0.00000000       0.00000000       0.47288634 </v>
   </varray>
  </crystal>
  <varray name="positions" >
   <v>       0.00000000       0.00000000       0.00000000 </v>
   <v>       0.25000000       0.25000000       0.25000000 </v>
  </varray>
 </structure>
</modeling>
