C                                       
           1
     2.589935    0.000000    0.000000
     1.294968    2.242950    0.000000
     1.294968    0.747650    2.114673
   C 
     2
Direct configuration=     1
   0.00000000  0.00000000  0.00000000
   0.25000000  0.25000000  0.25000000
