   28   28   10    1
  0.1328654E+02  0.5052600E-09  0.5052600E-09  0.1457270E-08  0.1500000E-14
   1.0000000000000000E-004
  CAR 
 C100                                    
     88      4     64
