 vasp.6.4.2 20Jul23 (build Oct 18 2023 12:49:41) complex                         
 executed on             LinuxGNU date 2025.06.06  15:29:49
 running    8 mpi-ranks, with    1 threads/rank, on    1 nodes
 distrk:  each k-point on    8 cores,    1 groups
 distr:  one band on NCORE=   1 cores,    8 groups


--------------------------------------------------------------------------------------------------------


 INCAR:
   SYSTEM = C100
   ISYM = 0
   IDIPOL = 3
   LDIPOL = .TRUE.
   IBRION = 0
   MDALGO = 2
   ISIF = 2
   TEEND = 0.1
   NSW = 300
   POTIM = 1.5
   SMASS = 1.0
   NBLOCK = 10
   ML_LMLFF = T
   ML_MODE = run
   RANDOM_SEED = 688344966                0                0
   NCORE = 1
   NSIM = 4

 POTCAR:    PAW_PBE C 08Apr2002                   
 POTCAR:    PAW_PBE H 15Jun2001                   
 POTCAR:    PAW_PBE C 08Apr2002                   
   SHA256 =  253f7b50bb8d59471dbedb8285d89021f4a42ed1a2c5d38a03a736e69125dd95 C/POTCAR              
   COPYR  = (c) Copyright 08Apr2002 Georg Kresse                                                    
   COPYR  = This file is part of the software VASP. Any use, copying, and all other rights are regul
   COPYR  = If you do not have a valid VASP license, you may not use, copy or distribute this file. 
   VRHFIN =C: s2p2                                                                                  
   LEXCH  = PE                                                                                      
   EATOM  =   147.1560 eV,   10.8157 Ry                                                             
                                                                                                    
   TITEL  = PAW_PBE C 08Apr2002                                                                     
   LULTRA =        F    use ultrasoft PP ?                                                          
   IUNSCR =        1    unscreen: 0-lin 1-nonlin 2-no                                               
   RPACOR =    1.200    partial core radius                                                         
   POMASS =   12.011; ZVAL   =    4.000    mass and valenz                                          
   RCORE  =    1.500    outmost cutoff radius                                                       
   RWIGS  =    1.630; RWIGS  =    0.863    wigner-seitz radius (au A)                               
   ENMAX  =  400.000; ENMIN  =  300.000 eV                                                          
   ICORE  =        2    local potential                                                             
   LCOR   =        T    correct aug charges                                                         
   LPAW   =        T    paw PP                                                                      
   EAUG   =  644.873                                                                                
   DEXC   =    0.000                                                                                
   RMAX   =    1.529    core radius for proj-oper                                                   
   RAUG   =    1.300    factor for augmentation sphere                                              
   RDEP   =    1.501    radius for radial grids                                                     
   RDEPT  =    1.300    core radius for aug-charge                                                  
                                                                                                    
   Atomic configuration                                                                             
    4 entries                                                                                       
     n  l   j            E        occ.                                                              
     1  0  0.50      -273.3789   2.0000                                                             
     2  0  0.50       -13.7508   2.0000                                                             
     2  1  0.50        -5.2854   2.0000                                                             
     3  2  1.50        -5.4423   0.0000                                                             
   Description                                                                                      
     l       E           TYP  RCUT    TYP  RCUT                                                     
     0    -13.7508458     23  1.200                                                                 
     0     -8.2022199     23  1.200                                                                 
     1     -5.2854383     23  1.500                                                                 
     1     34.0145650     23  1.500                                                                 
     2     -5.4423304      7  1.500                                                                 
  local pseudopotential read in
  partial core-charges read in
  partial kinetic energy density read in
  atomic valenz-charges read in
  non local Contribution for L=           0  read in
    real space projection operators read in
  non local Contribution for L=           0  read in
    real space projection operators read in
  non local Contribution for L=           1  read in
    real space projection operators read in
  non local Contribution for L=           1  read in
    real space projection operators read in
    PAW grid and wavefunctions read in

   number of l-projection  operators is LMAX  =           4
   number of lm-projection operators is LMMAX =           8

 POTCAR:    PAW_PBE H 15Jun2001                   
   SHA256 =  030f79b5d3ab3cf0e668861823c8fb652ff669f3e15e46930bd03bfd63a607b6 H/POTCAR              
   COPYR  = (c) Copyright 15Jun2001 Georg Kresse                                                    
   COPYR  = This file is part of the software VASP. Any use, copying, and all other rights are regul
   COPYR  = If you do not have a valid VASP license, you may not use, copy or distribute this file. 
   VRHFIN =H: ultrasoft test                                                                        
   LEXCH  = PE                                                                                      
   EATOM  =    12.4884 eV,    0.9179 Ry                                                             
                                                                                                    
   TITEL  = PAW_PBE H 15Jun2001                                                                     
   LULTRA =        F    use ultrasoft PP ?                                                          
   IUNSCR =        0    unscreen: 0-lin 1-nonlin 2-no                                               
   RPACOR =    0.000    partial core radius                                                         
   POMASS =    1.000; ZVAL   =    1.000    mass and valenz                                          
   RCORE  =    1.100    outmost cutoff radius                                                       
   RWIGS  =    0.700; RWIGS  =    0.370    wigner-seitz radius (au A)                               
   ENMAX  =  250.000; ENMIN  =  200.000 eV                                                          
   RCLOC  =    0.701    cutoff for local pot                                                        
   LCOR   =        T    correct aug charges                                                         
   LPAW   =        T    paw PP                                                                      
   EAUG   =  400.000                                                                                
   RMAX   =    1.123    core radius for proj-oper                                                   
   RAUG   =    1.200    factor for augmentation sphere                                              
   RDEP   =    1.112    radius for radial grids                                                     
   RDEPT  =    0.926    core radius for aug-charge                                                  
                                                                                                    
   Atomic configuration                                                                             
    2 entries                                                                                       
     n  l   j            E        occ.                                                              
     1  0  0.50        -6.4927   1.0000                                                             
     2  1  0.50        -3.4015   0.0000                                                             
   Description                                                                                      
     l       E           TYP  RCUT    TYP  RCUT                                                     
     0     -6.4927494     23  1.100                                                                 
     0      6.8029130     23  1.100                                                                 
     1     -4.0817478     23  1.100                                                                 
  local pseudopotential read in
  atomic valenz-charges read in
  non local Contribution for L=           0  read in
    real space projection operators read in
  non local Contribution for L=           0  read in
    real space projection operators read in
  non local Contribution for L=           1  read in
    real space projection operators read in
    PAW grid and wavefunctions read in

   number of l-projection  operators is LMAX  =           3
   number of lm-projection operators is LMMAX =           5

 -----------------------------------------------------------------------------
|                                                                             |
|               ----> ADVICE to this user running VASP <----                  |
|                                                                             |
|     You have a (more or less) 'large supercell' and for larger cells it     |
|     might be more efficient to use real-space projection operators.         |
|     Therefore, try LREAL= Auto in the INCAR file.                           |
|     Mind: For very accurate calculation, you might also keep the            |
|     reciprocal projection scheme (i.e. LREAL=.FALSE.).                      |
|                                                                             |
 -----------------------------------------------------------------------------

  PAW_PBE C 08Apr2002                   :
 energy of atom  1       EATOM= -147.1560
 kinetic energy error for atom=-2089.0381 (will be added to EATOM!!)
  PAW_PBE H 15Jun2001                   :
 energy of atom  2       EATOM=  -12.4884
 kinetic energy error for atom= -321.8997 (will be added to EATOM!!)


 POSCAR:  C
  positions in direct lattice
  velocities in cartesian coordinates

  Using predictor-coordinates on the file

  MD-specific parameters
                MDALGO =   2
                 CNEXP =     9.000   14.000
 exchange correlation table for  LEXCH =        8
   RHO(1)=    0.500       N(1)  =     2000
   RHO(2)=  100.500       N(2)  =     4000



--------------------------------------------------------------------------------------------------------


 ion  position               nearest neighbor table
   1  0.000  0.997  0.196-  10 1.55  14 1.57   4 1.59   5 1.60
   2  0.250  0.250  0.069-  21 1.05  22 1.05   9 1.48   4 1.57
   3  0.254  0.365  0.297-   8 1.36  15 1.51   5 1.51
   4  0.253  0.999  0.132-   7 1.56  11 1.56   2 1.57   1 1.59
   5  0.004  0.272  0.250-  13 1.50   3 1.51   6 1.56   1 1.60
   6  0.001  0.502  0.179-  19 1.49   9 1.51  10 1.54   5 1.56
   7  0.250  0.750  0.069-  23 1.05  24 1.05   9 1.48   4 1.56
   8  0.254  0.633  0.296-   3 1.36  20 1.51  10 1.52
   9  0.251  0.499  0.121-   2 1.48   7 1.48   6 1.51  16 1.52
  10  0.004  0.731  0.249-  18 1.52   8 1.52   6 1.54   1 1.55
  11  0.500  0.002  0.196-   4 1.56  15 1.57  14 1.58  20 1.59
  12  0.750  0.250  0.069-  25 1.05  26 1.05  19 1.48  14 1.56
  13  0.756  0.365  0.296-  18 1.37   5 1.50  15 1.52
  14  0.752  0.001  0.131-  12 1.56  17 1.56   1 1.57  11 1.58
  15  0.503  0.270  0.250-   3 1.51  13 1.52  16 1.56  11 1.57
  16  0.503  0.500  0.179-   9 1.52  19 1.53  20 1.56  15 1.56
  17  0.750  0.750  0.069-  27 1.05  28 1.05  19 1.48  14 1.56
  18  0.754  0.636  0.297-  13 1.37  20 1.51  10 1.52
  19  0.757  0.501  0.121-  17 1.48  12 1.48   6 1.49  16 1.53
  20  0.504  0.729  0.250-   8 1.51  18 1.51  16 1.56  11 1.59
  21  0.392  0.250  0.016-   2 1.05
  22  0.108  0.250  0.016-   2 1.05
  23  0.392  0.750  0.016-   7 1.05
  24  0.108  0.750  0.016-   7 1.05
  25  0.892  0.250  0.016-  12 1.05
  26  0.608  0.250  0.016-  12 1.05
  27  0.892  0.750  0.016-  17 1.05
  28  0.608  0.750  0.016-  17 1.05


IMPORTANT INFORMATION: All symmetrisations will be switched off!
NOSYMM: (Re-)initialisation of all symmetry stuff for point group C_1.


----------------------------------------------------------------------------------------

                                     Primitive cell                                     

  volume of cell :     372.0231

  direct lattice vectors                    reciprocal lattice vectors
     5.052600000  0.000000000  0.000000000     0.197917904  0.000000000  0.000000000
     0.000000000  5.052600000  0.000000000     0.000000000  0.197917904  0.000000000
     0.000000000  0.000000000 14.572700000     0.000000000  0.000000000  0.068621463

  length of vectors
     5.052600000  5.052600000 14.572700000     0.197917904  0.197917904  0.068621463

  position of ions in fractional coordinates (direct lattice)
     0.000006958  0.996525020  0.196420890
     0.250000000  0.250000000  0.068620000
     0.254298400  0.364901640  0.296685370
     0.252676850  0.999137950  0.131635450
     0.003768747  0.272213530  0.249886040
     0.001412229  0.502334700  0.179010800
     0.250000000  0.750000000  0.068620000
     0.254381320  0.633443030  0.296419140
     0.251036840  0.499489910  0.121497630
     0.003805312  0.731189650  0.249182630
     0.500256740  0.001523520  0.195975550
     0.750000000  0.250000000  0.068620000
     0.755840910  0.365364400  0.296229470
     0.752243220  0.000854489  0.131392210
     0.503061230  0.270295540  0.250300610
     0.503150470  0.499530410  0.178632450
     0.750000000  0.750000000  0.068620000
     0.754488640  0.636409990  0.296982740
     0.757206180  0.500878300  0.121335870
     0.503834010  0.728738880  0.250107990
     0.392149340  0.250000000  0.016123816
     0.107850660  0.250000000  0.016123816
     0.392149340  0.750000000  0.016123816
     0.107850660  0.750000000  0.016123816
     0.892149340  0.250000000  0.016123816
     0.607850660  0.250000000  0.016123816
     0.892149340  0.750000000  0.016123816
     0.607850660  0.750000000  0.016123816

  ion indices of the primitive-cell ions
   primitive index   ion index
                 1           1
                 2           2
                 3           3
                 4           4
                 5           5
                 6           6
                 7           7
                 8           8
                 9           9
                10          10
                11          11
                12          12
                13          13
                14          14
                15          15
                16          16
                17          17
                18          18
                19          19
                20          20
                21          21
                22          22
                23          23
                24          24
                25          25
                26          26
                27          27
                28          28

----------------------------------------------------------------------------------------



 KPOINTS: C fcc         # System label            

Automatic generation of k-mesh.
 Grid dimensions read from file:
 generate k-points for:    2    2    1

 Generating k-lattice:

  Cartesian coordinates                     Fractional coordinates (reciprocal lattice)
     0.098958952  0.000000000  0.000000000     0.500000000  0.000000000  0.000000000
     0.000000000  0.098958952  0.000000000     0.000000000  0.500000000  0.000000000
     0.000000000  0.000000000  0.068621463     0.000000000  0.000000000  1.000000000

  Length of vectors
     0.098958952  0.098958952  0.068621463

  Shift w.r.t. Gamma in fractional coordinates (k-lattice)
     0.000000000  0.000000000  0.000000000

 
 Subroutine IBZKPT returns following result:
 ===========================================
 
 Found      4 irreducible k-points:
 
 Following reciprocal coordinates:
            Coordinates               Weight
  0.000000  0.000000  0.000000      1.000000
  0.500000  0.000000  0.000000      1.000000
  0.000000  0.500000  0.000000      1.000000
  0.500000  0.500000  0.000000      1.000000
 
 Following cartesian coordinates:
            Coordinates               Weight
  0.000000  0.000000  0.000000      1.000000
  0.098959  0.000000  0.000000      1.000000
  0.000000  0.098959  0.000000      1.000000
  0.098959  0.098959  0.000000      1.000000
 


--------------------------------------------------------------------------------------------------------




 Dimension of arrays:
   k-points           NKPTS =      4   k-points in BZ     NKDIM =      4   number of bands    NBANDS=     64
   number of dos      NEDOS =    301   number of ions     NIONS =     28
   non local maximal  LDIM  =      4   non local SUM 2l+1 LMDIM =      8
   total plane-waves  NPLWV =      8
   max r-space proj   IRMAX =      1   max aug-charges    IRDMAX=    200
   dimension x,y,z NGX =     2 NGY =    2 NGZ =    2
   dimension x,y,z NGXF=     2 NGYF=    2 NGZF=    2
   support grid    NGXF=     2 NGYF=    2 NGZF=    2
   ions per type =              20   8
   NGX,Y,Z   is equivalent  to a cutoff of   0.66,  0.66,  0.23 a.u.
   NGXF,Y,Z  is equivalent  to a cutoff of   0.66,  0.66,  0.23 a.u.

 Based on PREC, I would recommend the following setting:
   dimension x,y,z NGX =     2 NGY =    2 NGZ =    4

 -----------------------------------------------------------------------------
|                                                                             |
|           W    W    AA    RRRRR   N    N  II  N    N   GGGG   !!!           |
|           W    W   A  A   R    R  NN   N  II  NN   N  G    G  !!!           |
|           W    W  A    A  R    R  N N  N  II  N N  N  G       !!!           |
|           W WW W  AAAAAA  RRRRR   N  N N  II  N  N N  G  GGG   !            |
|           WW  WW  A    A  R   R   N   NN  II  N   NN  G    G                |
|           W    W  A    A  R    R  N    N  II  N    N   GGGG   !!!           |
|                                                                             |
|     Your FFT grids (NGX,NGY,NGZ) are not sufficient for an accurate         |
|     calculation. Thus, the results might be wrong. Good settings for        |
|     NGX, NGY and NGZ are 2, 2 and 4, respectively.                          |
|     Mind: This setting results in a small but reasonable wrap-around        |
|     error. It is also necessary to adjust these values to the FFT           |
|     routines you use.                                                       |
|                                                                             |
 -----------------------------------------------------------------------------

 SYSTEM =  C100                                    
 POSCAR =   C                                      

 Startparameter for this run:
   NWRITE =      2    write-flag & timer
   PREC   = normal    normal or accurate (medium, high low for compatibility)
   ISTART =      0    job   : 0-new  1-cont  2-samecut
   ICHARG =      2    charge: 1-file 2-atom 10-const
   ISPIN  =      1    spin polarized calculation?
   LNONCOLLINEAR =      F non collinear calculations
   LSORBIT =      F    spin-orbit coupling
   INIWAV =      1    electr: 0-lowe 1-rand  2-diag
   LASPH  =      F    aspherical Exc in radial PAW
 Electronic Relaxation 1
   ENCUT  =    1.0 eV   0.07 Ry    0.27 a.u.   0.41  0.41  1.19*2*pi/ulx,y,z
   ENINI  =    1.0     initial cutoff
   ENAUG  =  644.9 eV  augmentation charge cutoff
   NELM   =     60;   NELMIN=  2; NELMDL= -5     # of ELM steps 
   EDIFF  = 0.1E-03   stopping-criterion for ELM
   LREAL  =      F    real-space projection
   NLSPLINE    = F    spline interpolate recip. space projectors
   LCOMPAT=      F    compatible to vasp.4.4
   GGA_COMPAT  = T    GGA compatible to vasp.4.4-vasp.4.6
   LMAXPAW     = -100 max onsite density
   LMAXMIX     =    2 max onsite mixed and CHGCAR
   VOSKOWN=      0    Vosko Wilk Nusair interpolation
   ROPT   =    0.00000   0.00000
 Ionic relaxation
   EDIFFG = 0.1E-02   stopping-criterion for IOM
   NSW    =    300    number of steps for IOM
   NBLOCK =     10;   KBLOCK =      1    inner block; outer block 
   IBRION =      0    ionic relax: 0-MD 1-quasi-New 2-CG
   NFREE  =      0    steps in history (QN), initial steepest desc. (CG)
   ISIF   =      2    stress and relaxation
   IWAVPR =     11    prediction:  0-non 1-charg 2-wave 3-comb
   ISYM   =      0    0-nonsym 1-usesym 2-fastsym
   LCORR  =      T    Harris-Foulkes like correction to forces

   POTIM  = 1.5000    time-step for ionic-motion
   TEIN   =  130.0    initial temperature
   TEBEG  =    0.0;   TEEND  =   0.1 temperature during run
   SMASS  =   1.00    Nose mass-parameter (am)
   estimated Nose-frequenzy (Omega)   =  0.18E+11 period in steps = 0.24E+06 mass=   0.194E-27a.u.
   SCALEE = 1.0000    scale energy and forces
   NPACO  =    256;   APACO  = 10.0  distance and # of slots for P.C.
   PSTRESS=    0.0 pullay stress

  Mass of Ions in am
   POMASS =  12.01  1.00
  Ionic Valenz
   ZVAL   =   4.00  1.00
  Atomic Wigner-Seitz radii
   RWIGS  =  -1.00 -1.00
  virtual crystal weights 
   VCA    =   1.00  1.00
   NELECT =      88.0000    total number of electrons
   NUPDOWN=      -1.0000    fix difference up-down

 DOS related values:
   EMIN   =  10.00;   EMAX   =-10.00  energy-range for DOS
   EFERMI =   0.00;   METHOD = LEGACY      
   ISMEAR =     1;   SIGMA  =   0.20  broadening in eV -4-tet -1-fermi 0-gaus

 Electronic relaxation 2 (details)
   IALGO  =     38    algorithm
   LDIAG  =      T    sub-space diagonalisation (order eigenvalues)
   LSUBROT=      F    optimize rotation matrix (better conditioning)
   TURBO    =      0    0=normal 1=particle mesh
   IRESTART =      0    0=no restart 2=restart with 2 vectors
   NREBOOT  =      0    no. of reboots
   NMIN     =      0    reboot dimension
   EREF     =   0.00    reference energy to select bands
   IMIX   =      4    mixing-type and parameters
     AMIX     =   0.40;   BMIX     =  1.00
     AMIX_MAG =   1.60;   BMIX_MAG =  1.00
     AMIN     =   0.10
     WC   =   100.;   INIMIX=   1;  MIXPRE=   1;  MAXMIX= -45

 Intra band minimization:
   WEIMIN = 0.0010     energy-eigenvalue tresh-hold
   EBREAK =  0.39E-06  absolut break condition
   DEPER  =   0.30     relativ break condition  

   TIME   =   0.40     timestep for ELM

  volume/ion in A,a.u.               =      13.29        89.66
  Fermi-wavevector in a.u.,A,eV,Ry     =   1.012463  1.913277 13.947074  1.025081
  Thomas-Fermi vector in A             =   2.145574

 Write flags
   LWAVE        =      T    write WAVECAR
   LDOWNSAMPLE  =      F    k-point downsampling of WAVECAR
   LCHARG       =      T    write CHGCAR
   LVTOT        =      F    write LOCPOT, total local potential
   LVHAR        =      F    write LOCPOT, Hartree potential only
   LELF         =      F    write electronic localiz. function (ELF)
   LORBIT       =      0    0 simple, 1 ext, 2 COOP (PROOUT), +10 PAW based schemes


 Dipole corrections
   LMONO  =      F    monopole corrections only (constant potential shift)
   LDIPOL =      T    correct potential (dipole corrections)
   IDIPOL =      3    1-x, 2-y, 3-z, 4-all directions 
   EPSILON=  1.0000000 bulk dielectric constant

 Exchange correlation treatment:
   GGA     =    --    GGA type
   LEXCH   =     8    internal setting for exchange type
   LIBXC   =     F    Libxc                    
   VOSKOWN =     0    Vosko Wilk Nusair interpolation
   LHFCALC =     F    Hartree Fock is set to
   LHFONE  =     F    Hartree Fock one center treatment
   AEXX    =    0.0000 exact exchange contribution

 Linear response parameters
   LEPSILON=     F    determine dielectric tensor
   LRPA    =     F    only Hartree local field effects (RPA)
   LNABLA  =     F    use nabla operator in PAW spheres
   LVEL    =     F    velocity operator in full k-point grid
   CSHIFT  =0.1000    complex shift for real part using Kramers Kronig
   OMEGAMAX=  -1.0    maximum frequency
   DEG_THRESHOLD= 0.2000000E-02 threshold for treating states as degnerate
   RTIME   =   -0.100 relaxation time in fs
  (WPLASMAI=    0.000 imaginary part of plasma frequency in eV, 0.658/RTIME)
   DFIELD  = 0.0000000 0.0000000 0.0000000 field for delta impulse in time

  Optional k-point grid parameters
   LKPOINTS_OPT  =     F    use optional k-point grid
   KPOINTS_OPT_MODE=     1    mode for optional k-point grid

 Orbital magnetization related:
   ORBITALMAG=     F  switch on orbital magnetization
   LCHIMAG   =     F  perturbation theory with respect to B field
   DQ        =  0.001000  dq finite difference perturbation B field
   LLRAUG    =     F  two centre corrections for induced B field
   LBONE     =     F  B-component reconstruction in AE one-centre
   LVGVCALC  =     T  calculate vGv susceptibility
   LVGVAPPL  =     F  apply vGv susceptibility instead of pGv for G=0

 Random number generation:
   RANDOM_GENERATOR = DEFAULT
   PCG_SEED         = not used


--------------------------------------------------------------------------------------------------------


 molecular dynamics for ions
   using nose mass (canonical ensemble)
   using selective dynamics as specified on POSCAR
 charge density and potential will be updated during run
 non-spin polarized calculation
 Variant of blocked Davidson
 Davidson routine will perform the subspace rotation
 perform sub-space diagonalisation
    after iterative eigenvector-optimisation
 modified Broyden-mixing scheme, WC =      100.0
 initial mixing is a Kerker type mixing with AMIX =  0.4000 and BMIX =      1.0000
 Hartree-type preconditioning will be used
 using additional bands           20
 reciprocal scheme for non local part
 use partial core corrections
 calculate Harris-corrections to forces   (improved forces if not selfconsistent)
 use gradient corrections 
 use of overlap-Matrix (Vanderbilt PP)
 Methfessel and Paxton  Order N= 1 SIGMA  =   0.20


--------------------------------------------------------------------------------------------------------


  energy-cutoff  :        1.00
  volume of cell :      372.02
      direct lattice vectors                 reciprocal lattice vectors
     5.052600000  0.000000000  0.000000000     0.197917904  0.000000000  0.000000000
     0.000000000  5.052600000  0.000000000     0.000000000  0.197917904  0.000000000
     0.000000000  0.000000000 14.572700000     0.000000000  0.000000000  0.068621463

  length of vectors
     5.052600000  5.052600000 14.572700000     0.197917904  0.197917904  0.068621463



 k-points in units of 2pi/SCALE and weight: C fcc         # System label            
   0.00000000  0.00000000  0.00000000       0.250
   0.09895895  0.00000000  0.00000000       0.250
   0.00000000  0.09895895  0.00000000       0.250
   0.09895895  0.09895895  0.00000000       0.250

 k-points in reciprocal lattice and weights: C fcc         # System label            
   0.00000000  0.00000000  0.00000000       0.250
   0.50000000  0.00000000  0.00000000       0.250
   0.00000000  0.50000000  0.00000000       0.250
   0.50000000  0.50000000  0.00000000       0.250

 position of ions in fractional coordinates (direct lattice) 
   0.00000696  0.99652502  0.19642089
   0.25000000  0.25000000  0.06862000
   0.25429840  0.36490164  0.29668537
   0.25267685  0.99913795  0.13163545
   0.00376875  0.27221353  0.24988604
   0.00141223  0.50233470  0.17901080
   0.25000000  0.75000000  0.06862000
   0.25438132  0.63344303  0.29641914
   0.25103684  0.49948991  0.12149763
   0.00380531  0.73118965  0.24918263
   0.50025674  0.00152352  0.19597555
   0.75000000  0.25000000  0.06862000
   0.75584091  0.36536440  0.29622947
   0.75224322  0.00085449  0.13139221
   0.50306123  0.27029554  0.25030061
   0.50315047  0.49953041  0.17863245
   0.75000000  0.75000000  0.06862000
   0.75448864  0.63640999  0.29698274
   0.75720618  0.50087830  0.12133587
   0.50383401  0.72873888  0.25010799
   0.39214934  0.25000000  0.01612382
   0.10785066  0.25000000  0.01612382
   0.39214934  0.75000000  0.01612382
   0.10785066  0.75000000  0.01612382
   0.89214934  0.25000000  0.01612382
   0.60785066  0.25000000  0.01612382
   0.89214934  0.75000000  0.01612382
   0.60785066  0.75000000  0.01612382

 position of ions in cartesian coordinates  (Angst):
   0.00003516  5.03504232  2.86238270
   1.26315000  1.26315000  0.99997867
   1.28486810  1.84370203  4.32350689
   1.27667505  5.04824441  1.91828392
   0.01904197  1.37538608  3.64151430
   0.00713543  2.53809631  2.60867069
   1.26315000  3.78945000  0.99997867
   1.28528706  3.20053425  4.31962720
   1.26838874  2.52372272  1.77054851
   0.01922672  3.69440883  3.63126371
   2.52759720  0.00769774  2.85589290
   3.78945000  1.26315000  0.99997867
   3.81896178  1.84604017  4.31686320
   3.80078409  0.00431739  1.91473926
   2.54176717  1.36569525  3.64755570
   2.54221806  2.52392735  2.60315710
   3.78945000  3.78945000  0.99997867
   3.81212930  3.21552512  4.32784038
   3.82585995  2.53073770  1.76819123
   2.54567172  3.68202607  3.64474871
   1.98137376  1.26315000  0.23496753
   0.54492624  1.26315000  0.23496753
   1.98137376  3.78945000  0.23496753
   0.54492624  3.78945000  0.23496753
   4.50767376  1.26315000  0.23496753
   3.07122624  1.26315000  0.23496753
   4.50767376  3.78945000  0.23496753
   3.07122624  3.78945000  0.23496753



--------------------------------------------------------------------------------------------------------


 k-point   1 :   0.0000 0.0000 0.0000  plane waves:       2
 k-point   2 :   0.5000 0.0000 0.0000  plane waves:       0
 k-point   3 :   0.0000 0.5000 0.0000  plane waves:       0
 k-point   4 :   0.5000 0.5000 0.0000  plane waves:       0

 maximum and minimum number of plane-waves per node :         2        0

 maximum number of plane-waves:         2
 maximum index in each direction: 
   IXMAX=    0   IYMAX=    0   IZMAX=    1
   IXMIN=    0   IYMIN=    0   IZMIN=    0



--------------------------------------- Ionic step        1  -------------------------------------------


      MLFF:  cpu time      0.0630: real time      0.0630
           RANDOM_SEED =         688344966                0                0
           RANDOM_SEED =         688344966                0                0
   IONSTEP:  cpu time      0.0008: real time      0.0008

  ENERGY OF THE ELECTRON-ION-THERMOSTAT SYSTEM (eV)
  ---------------------------------------------------
% ion-electron   TOTEN  =      -198.181050  see above
  kinetic energy EKIN   =         0.284572
  kin. lattice  EKIN_LAT=         0.000000  (temperature  137.60 K)
  nose potential ES     =         0.000005
  nose kinetic   EPS    =         0.396485
  ---------------------------------------------------
  total energy   ETOTAL =      -197.499989 eV



--------------------------------------- Ionic step        2  -------------------------------------------


      MLFF:  cpu time      0.0619: real time      0.0619
     LOOP+:  cpu time      0.1258: real time      0.1258
           RANDOM_SEED =         688344966                0                0
   IONSTEP:  cpu time      0.0008: real time      0.0008

  ENERGY OF THE ELECTRON-ION-THERMOSTAT SYSTEM (eV)
  ---------------------------------------------------
% ion-electron   TOTEN  =      -198.216267  see above
  kinetic energy EKIN   =         0.303549
  kin. lattice  EKIN_LAT=         0.000000  (temperature  146.77 K)
  nose potential ES     =         0.000008
  nose kinetic   EPS    =         0.412512
  ---------------------------------------------------
  total energy   ETOTAL =      -197.500198 eV



--------------------------------------- Ionic step        3  -------------------------------------------


      MLFF:  cpu time      0.0617: real time      0.0617
     LOOP+:  cpu time      0.0625: real time      0.0625
           RANDOM_SEED =         688344966                0                0
   IONSTEP:  cpu time      0.0008: real time      0.0008

  ENERGY OF THE ELECTRON-ION-THERMOSTAT SYSTEM (eV)
  ---------------------------------------------------
% ion-electron   TOTEN  =      -198.213486  see above
  kinetic energy EKIN   =         0.285349
  kin. lattice  EKIN_LAT=         0.000000  (temperature  137.97 K)
  nose potential ES     =         0.000012
  nose kinetic   EPS    =         0.428848
  ---------------------------------------------------
  total energy   ETOTAL =      -197.499277 eV



--------------------------------------- Ionic step        4  -------------------------------------------


      MLFF:  cpu time      0.0616: real time      0.0616
     LOOP+:  cpu time      0.0624: real time      0.0624
           RANDOM_SEED =         688344966                0                0
   IONSTEP:  cpu time      0.0008: real time      0.0008

  ENERGY OF THE ELECTRON-ION-THERMOSTAT SYSTEM (eV)
  ---------------------------------------------------
% ion-electron   TOTEN  =      -198.180619  see above
  kinetic energy EKIN   =         0.239219
  kin. lattice  EKIN_LAT=         0.000000  (temperature  115.67 K)
  nose potential ES     =         0.000015
  nose kinetic   EPS    =         0.443556
  ---------------------------------------------------
  total energy   ETOTAL =      -197.497829 eV



--------------------------------------- Ionic step        5  -------------------------------------------


      MLFF:  cpu time      0.0617: real time      0.0617
     LOOP+:  cpu time      0.0625: real time      0.0625
           RANDOM_SEED =         688344966                0                0
   IONSTEP:  cpu time      0.0008: real time      0.0008

  ENERGY OF THE ELECTRON-ION-THERMOSTAT SYSTEM (eV)
  ---------------------------------------------------
% ion-electron   TOTEN  =      -198.135664  see above
  kinetic energy EKIN   =         0.183645
  kin. lattice  EKIN_LAT=         0.000000  (temperature   88.80 K)
  nose potential ES     =         0.000019
  nose kinetic   EPS    =         0.455457
  ---------------------------------------------------
  total energy   ETOTAL =      -197.496542 eV



--------------------------------------- Ionic step        6  -------------------------------------------


      MLFF:  cpu time      0.0618: real time      0.0618
     LOOP+:  cpu time      0.0626: real time      0.0626
           RANDOM_SEED =         688344966                0                0
   IONSTEP:  cpu time      0.0008: real time      0.0008

  ENERGY OF THE ELECTRON-ION-THERMOSTAT SYSTEM (eV)
  ---------------------------------------------------
% ion-electron   TOTEN  =      -198.096668  see above
  kinetic energy EKIN   =         0.136350
  kin. lattice  EKIN_LAT=         0.000000  (temperature   65.93 K)
  nose potential ES     =         0.000023
  nose kinetic   EPS    =         0.464455
  ---------------------------------------------------
  total energy   ETOTAL =      -197.495839 eV



--------------------------------------- Ionic step        7  -------------------------------------------


      MLFF:  cpu time      0.0626: real time      0.0626
     LOOP+:  cpu time      0.0634: real time      0.0634
           RANDOM_SEED =         688344966                0                0
   IONSTEP:  cpu time      0.0008: real time      0.0008

  ENERGY OF THE ELECTRON-ION-THERMOSTAT SYSTEM (eV)
  ---------------------------------------------------
% ion-electron   TOTEN  =      -198.074591  see above
  kinetic energy EKIN   =         0.107478
  kin. lattice  EKIN_LAT=         0.000000  (temperature   51.97 K)
  nose potential ES     =         0.000027
  nose kinetic   EPS    =         0.471319
  ---------------------------------------------------
  total energy   ETOTAL =      -197.495766 eV



--------------------------------------- Ionic step        8  -------------------------------------------


      MLFF:  cpu time      0.0625: real time      0.0625
     LOOP+:  cpu time      0.0633: real time      0.0633
           RANDOM_SEED =         688344966                0                0
   IONSTEP:  cpu time      0.0008: real time      0.0008

  ENERGY OF THE ELECTRON-ION-THERMOSTAT SYSTEM (eV)
  ---------------------------------------------------
% ion-electron   TOTEN  =      -198.071389  see above
  kinetic energy EKIN   =         0.098106
  kin. lattice  EKIN_LAT=         0.000000  (temperature   47.44 K)
  nose potential ES     =         0.000031
  nose kinetic   EPS    =         0.477169
  ---------------------------------------------------
  total energy   ETOTAL =      -197.496083 eV



--------------------------------------- Ionic step        9  -------------------------------------------


      MLFF:  cpu time      0.0624: real time      0.0624
     LOOP+:  cpu time      0.0631: real time      0.0631
           RANDOM_SEED =         688344966                0                0
   IONSTEP:  cpu time      0.0008: real time      0.0008

  ENERGY OF THE ELECTRON-ION-THERMOSTAT SYSTEM (eV)
  ---------------------------------------------------
% ion-electron   TOTEN  =      -198.082707  see above
  kinetic energy EKIN   =         0.103219
  kin. lattice  EKIN_LAT=         0.000000  (temperature   49.91 K)
  nose potential ES     =         0.000035
  nose kinetic   EPS    =         0.483000
  ---------------------------------------------------
  total energy   ETOTAL =      -197.496453 eV



--------------------------------------- Ionic step       10  -------------------------------------------



  ML FORCE on cell =-STRESS in cart. coord. units (eV/cell)
  Direction    XX          YY          ZZ          XY          YZ          ZX
  --------------------------------------------------------------------------------------
  Total:    -56.66913   -13.53607     2.86553     0.11673     0.01687    -0.68203
  in kB    -244.05475   -58.29528    12.34088     0.50272     0.07265    -2.93728
  external pressure =      -96.67 kB  Pullay stress =        0.00 kB

  kinetic pressure (ideal gas correction) =      0.32 kB
  total pressure  =    -96.35 kB
  Total+kin.  -243.927     -57.911      12.795       0.544       0.033      -2.954
  volume of cell :      372.02
      direct lattice vectors                 reciprocal lattice vectors
     5.052600000  0.000000000  0.000000000     0.197917904  0.000000000  0.000000000
     0.000000000  5.052600000  0.000000000     0.000000000  0.197917904  0.000000000
     0.000000000  0.000000000 14.572700000     0.000000000  0.000000000  0.068621463

  length of vectors
     5.052600000  5.052600000 14.572700000     0.197917904  0.197917904  0.068621463


  POSITION                                       TOTAL-FORCE (eV/Angst) (ML)
 -----------------------------------------------------------------------------------
      0.01905      0.00384      2.81637        -0.387542     -0.572260      0.809131
      1.26315      1.26315      0.99998         0.176515     -1.307721     -1.443982
      1.27888      1.83448      4.32333        -0.033936     -0.034131     -0.363152
      1.26511      5.04792      1.85861         0.197245      0.172439      0.943091
      0.01659      1.32024      3.64373        -0.084258      1.420403     -0.177941
      0.02232      2.51646      2.56192        -0.573800      0.169281      1.111395
      1.26315      3.78945      0.99998         0.112229      1.209354     -1.507866
      1.27436      3.22760      4.31414         0.022887     -0.481982     -0.019523
      1.28196      2.52712      1.72302        -0.362396     -0.119609      1.267424
      0.00891      3.70231      3.64464         0.083478     -0.388225     -0.581972
      2.53969      5.04146      2.83073        -0.190231      0.441506      0.274783
      3.78945      1.26315      0.99998        -0.126839     -1.371896     -1.325202
      3.79449      1.83163      4.30966         0.326046     -0.342022     -0.130585
      3.78529      5.04906      1.87069         0.414516      0.127753      0.592990
      2.53914      1.33051      3.64182        -0.213253      0.961019     -0.202588
      2.54142      2.52780      2.55902        -0.274468     -0.093671      1.363348
      3.78945      3.78945      0.99998        -0.064575      1.201956     -1.339560
      3.79649      3.21435      4.32438         0.152246      0.138212     -0.313634
      3.78271      2.52508      1.72451         0.895464      0.015557      1.271238
      2.53875      3.71942      3.64435        -0.075883     -1.119004     -0.297700
      1.98137      1.26315      0.23497        -0.119690     -0.322982     -0.033371
      0.54493      1.26315      0.23497         0.129187     -0.261267      0.061633
      1.98137      3.78945      0.23497        -0.097587      0.325410     -0.045819
      0.54493      3.78945      0.23497         0.136011      0.238301      0.044229
      4.50767      1.26315      0.23497        -0.120854     -0.305539      0.052828
      3.07123      1.26315      0.23497         0.115733     -0.305982     -0.026790
      4.50767      3.78945      0.23497        -0.136004      0.290378      0.051574
      3.07123      3.78945      0.23497         0.099761      0.314722     -0.033979
 -----------------------------------------------------------------------------------
    total drift:                               -0.000000     -0.000000     -0.000000


--------------------------------------------------------------------------------------------------------



  ML FREE ENERGIE OF THE ION-ELECTRON SYSTEM (eV)
  ---------------------------------------------------
  free  energy ML TOTEN  =      -198.10258052 eV

  ML energy  without entropy=     -198.10258052  ML energy(sigma->0) =     -198.10258052

      MLFF:  cpu time      0.0623: real time      0.0623
     LOOP+:  cpu time      0.0631: real time      0.0631
           RANDOM_SEED =         688344966                0                0
   IONSTEP:  cpu time      0.0008: real time      0.0008

  ENERGY OF THE ELECTRON-ION-THERMOSTAT SYSTEM (eV)
  ---------------------------------------------------
% ion-electron   TOTEN  =      -198.102581  see above
  kinetic energy EKIN   =         0.116440
  kin. lattice  EKIN_LAT=         0.000000  (temperature   56.30 K)
  nose potential ES     =         0.000039
  nose kinetic   EPS    =         0.489452
  ---------------------------------------------------
  total energy   ETOTAL =      -197.496649 eV


 mean value of Nose-termostat <S>:     2.682 mean value of <T> :    89.834
 mean temperature <T/S>/<1/S>  :    90.926



--------------------------------------- Ionic step       11  -------------------------------------------


      MLFF:  cpu time      0.0689: real time      0.0689
     LOOP+:  cpu time      0.0697: real time      0.0697
           RANDOM_SEED =         688344966                0                0
   IONSTEP:  cpu time      0.0008: real time      0.0008

  ENERGY OF THE ELECTRON-ION-THERMOSTAT SYSTEM (eV)
  ---------------------------------------------------
% ion-electron   TOTEN  =      -198.127005  see above
  kinetic energy EKIN   =         0.133434
  kin. lattice  EKIN_LAT=         0.000000  (temperature   64.52 K)
  nose potential ES     =         0.000044
  nose kinetic   EPS    =         0.496853
  ---------------------------------------------------
  total energy   ETOTAL =      -197.496675 eV



--------------------------------------- Ionic step       12  -------------------------------------------


      MLFF:  cpu time      0.0617: real time      0.0617
     LOOP+:  cpu time      0.0626: real time      0.0626
           RANDOM_SEED =         688344966                0                0
   IONSTEP:  cpu time      0.0008: real time      0.0008

  ENERGY OF THE ELECTRON-ION-THERMOSTAT SYSTEM (eV)
  ---------------------------------------------------
% ion-electron   TOTEN  =      -198.154214  see above
  kinetic energy EKIN   =         0.152079
  kin. lattice  EKIN_LAT=         0.000000  (temperature   73.53 K)
  nose potential ES     =         0.000048
  nose kinetic   EPS    =         0.505367
  ---------------------------------------------------
  total energy   ETOTAL =      -197.496720 eV



--------------------------------------- Ionic step       13  -------------------------------------------


      MLFF:  cpu time      0.0616: real time      0.0617
     LOOP+:  cpu time      0.0624: real time      0.0625
           RANDOM_SEED =         688344966                0                0
   IONSTEP:  cpu time      0.0009: real time      0.0009

  ENERGY OF THE ELECTRON-ION-THERMOSTAT SYSTEM (eV)
  ---------------------------------------------------
% ion-electron   TOTEN  =      -198.181990  see above
  kinetic energy EKIN   =         0.169914
  kin. lattice  EKIN_LAT=         0.000000  (temperature   82.16 K)
  nose potential ES     =         0.000053
  nose kinetic   EPS    =         0.515068
  ---------------------------------------------------
  total energy   ETOTAL =      -197.496955 eV



--------------------------------------- Ionic step       14  -------------------------------------------


      MLFF:  cpu time      0.0616: real time      0.0616
     LOOP+:  cpu time      0.0625: real time      0.0625
           RANDOM_SEED =         688344966                0                0
   IONSTEP:  cpu time      0.0008: real time      0.0008

  ENERGY OF THE ELECTRON-ION-THERMOSTAT SYSTEM (eV)
  ---------------------------------------------------
% ion-electron   TOTEN  =      -198.204999  see above
  kinetic energy EKIN   =         0.181812
  kin. lattice  EKIN_LAT=         0.000000  (temperature   87.91 K)
  nose potential ES     =         0.000057
  nose kinetic   EPS    =         0.525822
  ---------------------------------------------------
  total energy   ETOTAL =      -197.497307 eV



--------------------------------------- Ionic step       15  -------------------------------------------


      MLFF:  cpu time      0.0628: real time      0.0628
     LOOP+:  cpu time      0.0636: real time      0.0636
           RANDOM_SEED =         688344966                0                0
   IONSTEP:  cpu time      0.0008: real time      0.0008

  ENERGY OF THE ELECTRON-ION-THERMOSTAT SYSTEM (eV)
  ---------------------------------------------------
% ion-electron   TOTEN  =      -198.215553  see above
  kinetic energy EKIN   =         0.180935
  kin. lattice  EKIN_LAT=         0.000000  (temperature   87.49 K)
  nose potential ES     =         0.000062
  nose kinetic   EPS    =         0.537093
  ---------------------------------------------------
  total energy   ETOTAL =      -197.497463 eV



--------------------------------------- Ionic step       16  -------------------------------------------


      MLFF:  cpu time      0.0619: real time      0.0619
     LOOP+:  cpu time      0.0628: real time      0.0628
           RANDOM_SEED =         688344966                0                0
   IONSTEP:  cpu time      0.0008: real time      0.0008

  ENERGY OF THE ELECTRON-ION-THERMOSTAT SYSTEM (eV)
  ---------------------------------------------------
% ion-electron   TOTEN  =      -198.208260  see above
  kinetic energy EKIN   =         0.163149
  kin. lattice  EKIN_LAT=         0.000000  (temperature   78.89 K)
  nose potential ES     =         0.000066
  nose kinetic   EPS    =         0.547923
  ---------------------------------------------------
  total energy   ETOTAL =      -197.497121 eV



--------------------------------------- Ionic step       17  -------------------------------------------


      MLFF:  cpu time      0.0623: real time      0.0623
     LOOP+:  cpu time      0.0631: real time      0.0631
           RANDOM_SEED =         688344966                0                0
   IONSTEP:  cpu time      0.0008: real time      0.0008

  ENERGY OF THE ELECTRON-ION-THERMOSTAT SYSTEM (eV)
  ---------------------------------------------------
% ion-electron   TOTEN  =      -198.185098  see above
  kinetic energy EKIN   =         0.131499
  kin. lattice  EKIN_LAT=         0.000000  (temperature   63.58 K)
  nose potential ES     =         0.000071
  nose kinetic   EPS    =         0.557248
  ---------------------------------------------------
  total energy   ETOTAL =      -197.496280 eV



--------------------------------------- Ionic step       18  -------------------------------------------


      MLFF:  cpu time      0.0621: real time      0.0621
     LOOP+:  cpu time      0.0629: real time      0.0629
           RANDOM_SEED =         688344966                0                0
   IONSTEP:  cpu time      0.0008: real time      0.0008

  ENERGY OF THE ELECTRON-ION-THERMOSTAT SYSTEM (eV)
  ---------------------------------------------------
% ion-electron   TOTEN  =      -198.156414  see above
  kinetic energy EKIN   =         0.096625
  kin. lattice  EKIN_LAT=         0.000000  (temperature   46.72 K)
  nose potential ES     =         0.000076
  nose kinetic   EPS    =         0.564425
  ---------------------------------------------------
  total energy   ETOTAL =      -197.495287 eV



--------------------------------------- Ionic step       19  -------------------------------------------


      MLFF:  cpu time      0.0618: real time      0.0619
     LOOP+:  cpu time      0.0627: real time      0.0627
           RANDOM_SEED =         688344966                0                0
   IONSTEP:  cpu time      0.0008: real time      0.0008

  ENERGY OF THE ELECTRON-ION-THERMOSTAT SYSTEM (eV)
  ---------------------------------------------------
% ion-electron   TOTEN  =      -198.136497  see above
  kinetic energy EKIN   =         0.072168
  kin. lattice  EKIN_LAT=         0.000000  (temperature   34.89 K)
  nose potential ES     =         0.000081
  nose kinetic   EPS    =         0.569641
  ---------------------------------------------------
  total energy   ETOTAL =      -197.494606 eV



--------------------------------------- Ionic step       20  -------------------------------------------



  ML FORCE on cell =-STRESS in cart. coord. units (eV/cell)
  Direction    XX          YY          ZZ          XY          YZ          ZX
  --------------------------------------------------------------------------------------
  Total:    -54.82602   -13.43228     6.16432    -0.01206     0.69323    -0.10335
  in kB    -236.11711   -57.84827    26.54764    -0.05196     2.98549    -0.44509
  external pressure =      -89.14 kB  Pullay stress =        0.00 kB

  kinetic pressure (ideal gas correction) =      0.20 kB
  total pressure  =    -88.94 kB
  Total+kin.  -236.016     -57.740      26.928      -0.047       2.941      -0.469
  volume of cell :      372.02
      direct lattice vectors                 reciprocal lattice vectors
     5.052600000  0.000000000  0.000000000     0.197917904  0.000000000  0.000000000
     0.000000000  5.052600000  0.000000000     0.000000000  0.197917904  0.000000000
     0.000000000  0.000000000 14.572700000     0.000000000  0.000000000  0.068621463

  length of vectors
     5.052600000  5.052600000 14.572700000     0.197917904  0.197917904  0.068621463


  POSITION                                       TOTAL-FORCE (eV/Angst) (ML)
 -----------------------------------------------------------------------------------
      0.00311      5.04115      2.85054         0.117445      0.461149     -0.332022
      1.26315      1.26315      0.99998        -0.023413     -0.806420     -0.099073
      1.26390      1.82244      4.30727         0.014645      0.673091      0.700092
      1.26979      0.00316      1.89784        -0.097538     -0.187573     -0.381404
      0.00173      1.36803      3.63777         0.060740     -1.437067      0.380175
      5.04834      2.52009      2.61545         0.400226      0.125747     -0.804989
      1.26315      3.78945      0.99998         0.017035      0.767895     -0.011382
      1.26579      3.21259      4.31791        -0.085571     -0.434790      0.326849
      1.25811      2.52395      1.79051         0.242238      0.068440     -1.231978
      0.00264      3.68313      3.63033         0.112320      0.683807      0.783569
      2.53137      0.00587      2.83680         0.028943     -0.375646      0.149423
      3.78945      1.26315      0.99998         0.242750     -0.828255     -0.134239
      3.79802      1.81460      4.31517        -0.252670      1.083520      0.534718
      3.80524      0.00051      1.89236        -0.421315     -0.078615     -0.204498
      2.52752      1.36585      3.63214         0.149058     -1.151899      0.514045
      2.52169      2.52134      2.62331         0.325558      0.069358     -1.265176
      3.78945      3.78945      0.99998         0.201230      0.701991     -0.061372
      3.79832      3.21285      4.30138        -0.224534     -0.724090      0.693835
      3.80378      2.52255      1.79120        -0.866499      0.112748     -1.307821
      2.52737      3.67460      3.63668         0.123633      1.271396      0.544357
      1.98137      1.26315      0.23497        -0.117748     -0.186436      0.158405
      0.54493      1.26315      0.23497         0.084888     -0.228912      0.121036
      1.98137      3.78945      0.23497        -0.137953      0.194193      0.173022
      0.54493      3.78945      0.23497         0.086317      0.233762      0.156043
      4.50767      1.26315      0.23497        -0.108331     -0.211868      0.064000
      3.07123      1.26315      0.23497         0.108754     -0.198897      0.215011
      4.50767      3.78945      0.23497        -0.099041      0.206383      0.094919
      3.07123      3.78945      0.23497         0.118835      0.196990      0.224455
 -----------------------------------------------------------------------------------
    total drift:                                0.000000     -0.000000     -0.000000


--------------------------------------------------------------------------------------------------------



  ML FREE ENERGIE OF THE ION-ELECTRON SYSTEM (eV)
  ---------------------------------------------------
  free  energy ML TOTEN  =      -198.13650558 eV

  ML energy  without entropy=     -198.13650558  ML energy(sigma->0) =     -198.13650558

      MLFF:  cpu time      0.0622: real time      0.0622
     LOOP+:  cpu time      0.0630: real time      0.0630
           RANDOM_SEED =         688344966                0                0
   IONSTEP:  cpu time      0.0008: real time      0.0008

  ENERGY OF THE ELECTRON-ION-THERMOSTAT SYSTEM (eV)
  ---------------------------------------------------
% ion-electron   TOTEN  =      -198.136506  see above
  kinetic energy EKIN   =         0.067979
  kin. lattice  EKIN_LAT=         0.000000  (temperature   32.87 K)
  nose potential ES     =         0.000086
  nose kinetic   EPS    =         0.573908
  ---------------------------------------------------
  total energy   ETOTAL =      -197.494532 eV


 mean value of Nose-termostat <S>:     2.975 mean value of <T> :    65.255
 mean temperature <T/S>/<1/S>  :    65.668



--------------------------------------- Ionic step       21  -------------------------------------------


      MLFF:  cpu time      0.0669: real time      0.0669
     LOOP+:  cpu time      0.0677: real time      0.0677
           RANDOM_SEED =         688344966                0                0
   IONSTEP:  cpu time      0.0008: real time      0.0008

  ENERGY OF THE ELECTRON-ION-THERMOSTAT SYSTEM (eV)
  ---------------------------------------------------
% ion-electron   TOTEN  =      -198.159058  see above
  kinetic energy EKIN   =         0.085279
  kin. lattice  EKIN_LAT=         0.000000  (temperature   41.23 K)
  nose potential ES     =         0.000091
  nose kinetic   EPS    =         0.578641
  ---------------------------------------------------
  total energy   ETOTAL =      -197.495047 eV



--------------------------------------- Ionic step       22  -------------------------------------------


      MLFF:  cpu time      0.0618: real time      0.0618
     LOOP+:  cpu time      0.0626: real time      0.0626
           RANDOM_SEED =         688344966                0                0
   IONSTEP:  cpu time      0.0008: real time      0.0008

  ENERGY OF THE ELECTRON-ION-THERMOSTAT SYSTEM (eV)
  ---------------------------------------------------
% ion-electron   TOTEN  =      -198.197194  see above
  kinetic energy EKIN   =         0.116185
  kin. lattice  EKIN_LAT=         0.000000  (temperature   56.18 K)
  nose potential ES     =         0.000097
  nose kinetic   EPS    =         0.585045
  ---------------------------------------------------
  total energy   ETOTAL =      -197.495868 eV



--------------------------------------- Ionic step       23  -------------------------------------------


      MLFF:  cpu time      0.0617: real time      0.0617
     LOOP+:  cpu time      0.0626: real time      0.0626
           RANDOM_SEED =         688344966                0                0
   IONSTEP:  cpu time      0.0008: real time      0.0008

  ENERGY OF THE ELECTRON-ION-THERMOSTAT SYSTEM (eV)
  ---------------------------------------------------
% ion-electron   TOTEN  =      -198.237714  see above
  kinetic energy EKIN   =         0.147391
  kin. lattice  EKIN_LAT=         0.000000  (temperature   71.27 K)
  nose potential ES     =         0.000102
  nose kinetic   EPS    =         0.593621
  ---------------------------------------------------
  total energy   ETOTAL =      -197.496600 eV



--------------------------------------- Ionic step       24  -------------------------------------------


      MLFF:  cpu time      0.0626: real time      0.0626
     LOOP+:  cpu time      0.0634: real time      0.0634
           RANDOM_SEED =         688344966                0                0
   IONSTEP:  cpu time      0.0008: real time      0.0008

  ENERGY OF THE ELECTRON-ION-THERMOSTAT SYSTEM (eV)
  ---------------------------------------------------
% ion-electron   TOTEN  =      -198.267008  see above
  kinetic energy EKIN   =         0.166018
  kin. lattice  EKIN_LAT=         0.000000  (temperature   80.27 K)
  nose potential ES     =         0.000107
  nose kinetic   EPS    =         0.603979
  ---------------------------------------------------
  total energy   ETOTAL =      -197.496903 eV



--------------------------------------- Ionic step       25  -------------------------------------------


      MLFF:  cpu time      0.0622: real time      0.0622
     LOOP+:  cpu time      0.0631: real time      0.0631
           RANDOM_SEED =         688344966                0                0
   IONSTEP:  cpu time      0.0008: real time      0.0008

  ENERGY OF THE ELECTRON-ION-THERMOSTAT SYSTEM (eV)
  ---------------------------------------------------
% ion-electron   TOTEN  =      -198.276786  see above
  kinetic energy EKIN   =         0.165010
  kin. lattice  EKIN_LAT=         0.000000  (temperature   79.79 K)
  nose potential ES     =         0.000113
  nose kinetic   EPS    =         0.615026
  ---------------------------------------------------
  total energy   ETOTAL =      -197.496637 eV



--------------------------------------- Ionic step       26  -------------------------------------------


      MLFF:  cpu time      0.0622: real time      0.0622
     LOOP+:  cpu time      0.0631: real time      0.0631
           RANDOM_SEED =         688344966                0                0
   IONSTEP:  cpu time      0.0008: real time      0.0008

  ENERGY OF THE ELECTRON-ION-THERMOSTAT SYSTEM (eV)
  ---------------------------------------------------
% ion-electron   TOTEN  =      -198.267234  see above
  kinetic energy EKIN   =         0.145751
  kin. lattice  EKIN_LAT=         0.000000  (temperature   70.47 K)
  nose potential ES     =         0.000119
  nose kinetic   EPS    =         0.625437
  ---------------------------------------------------
  total energy   ETOTAL =      -197.495928 eV



--------------------------------------- Ionic step       27  -------------------------------------------


      MLFF:  cpu time      0.0624: real time      0.0624
     LOOP+:  cpu time      0.0633: real time      0.0633
           RANDOM_SEED =         688344966                0                0
   IONSTEP:  cpu time      0.0009: real time      0.0009

  ENERGY OF THE ELECTRON-ION-THERMOSTAT SYSTEM (eV)
  ---------------------------------------------------
% ion-electron   TOTEN  =      -198.246138  see above
  kinetic energy EKIN   =         0.116698
  kin. lattice  EKIN_LAT=         0.000000  (temperature   56.43 K)
  nose potential ES     =         0.000124
  nose kinetic   EPS    =         0.634208
  ---------------------------------------------------
  total energy   ETOTAL =      -197.495107 eV



--------------------------------------- Ionic step       28  -------------------------------------------


      MLFF:  cpu time      0.0618: real time      0.0618
     LOOP+:  cpu time      0.0626: real time      0.0626
           RANDOM_SEED =         688344966                0                0
   IONSTEP:  cpu time      0.0009: real time      0.0008

  ENERGY OF THE ELECTRON-ION-THERMOSTAT SYSTEM (eV)
  ---------------------------------------------------
% ion-electron   TOTEN  =      -198.224467  see above
  kinetic energy EKIN   =         0.088790
  kin. lattice  EKIN_LAT=         0.000000  (temperature   42.93 K)
  nose potential ES     =         0.000130
  nose kinetic   EPS    =         0.641022
  ---------------------------------------------------
  total energy   ETOTAL =      -197.494524 eV



--------------------------------------- Ionic step       29  -------------------------------------------


      MLFF:  cpu time      0.0621: real time      0.0621
     LOOP+:  cpu time      0.0630: real time      0.0630
           RANDOM_SEED =         688344966                0                0
   IONSTEP:  cpu time      0.0009: real time      0.0009

  ENERGY OF THE ELECTRON-ION-THERMOSTAT SYSTEM (eV)
  ---------------------------------------------------
% ion-electron   TOTEN  =      -198.210997  see above
  kinetic energy EKIN   =         0.070255
  kin. lattice  EKIN_LAT=         0.000000  (temperature   33.97 K)
  nose potential ES     =         0.000136
  nose kinetic   EPS    =         0.646257
  ---------------------------------------------------
  total energy   ETOTAL =      -197.494349 eV



--------------------------------------- Ionic step       30  -------------------------------------------



  ML FORCE on cell =-STRESS in cart. coord. units (eV/cell)
  Direction    XX          YY          ZZ          XY          YZ          ZX
  --------------------------------------------------------------------------------------
  Total:    -61.04062   -15.22776    -3.19861    -0.08744     0.31627     0.14147
  in kB    -262.88130   -65.58079   -13.77535    -0.37657     1.36207     0.60925
  external pressure =     -114.08 kB  Pullay stress =        0.00 kB

  kinetic pressure (ideal gas correction) =      0.19 kB
  total pressure  =   -113.89 kB
  Total+kin.  -262.812     -65.479     -13.373      -0.384       1.391       0.601
  volume of cell :      372.02
      direct lattice vectors                 reciprocal lattice vectors
     5.052600000  0.000000000  0.000000000     0.197917904  0.000000000  0.000000000
     0.000000000  5.052600000  0.000000000     0.000000000  0.197917904  0.000000000
     0.000000000  0.000000000 14.572700000     0.000000000  0.000000000  0.068621463

  length of vectors
     5.052600000  5.052600000 14.572700000     0.197917904  0.197917904  0.068621463


  POSITION                                       TOTAL-FORCE (eV/Angst) (ML)
 -----------------------------------------------------------------------------------
      5.05130      0.00263      2.86215        -0.025790     -0.341340      0.195345
      1.26315      1.26315      0.99998        -0.006110     -1.248370     -0.569627
      1.26001      1.82565      4.35148         0.024740     -0.379256     -0.282307
      1.26284      5.04771      1.90073        -0.020420      0.199074      0.164841
      5.04826      1.32862      3.67492        -0.044389      1.130282     -0.259654
      5.04823      2.53064      2.59784        -0.117657     -0.254548      0.402729
      1.26315      3.78945      0.99998        -0.021538      1.158760     -0.638625
      1.25986      3.20315      4.34946         0.161216      0.487286     -0.122573
      1.26088      2.52662      1.74047        -0.096565     -0.046597      1.197082
      0.00195      3.70553      3.68471        -0.297561     -0.547133     -0.538969
      2.52773      5.04244      2.86950        -0.103687      0.301670     -0.063384
      3.78945      1.26315      0.99998        -0.181628     -1.151716     -0.599701
      3.78123      1.83432      4.35600         0.170441     -0.607985     -0.344453
      3.78132      5.05171      1.89772         0.266046     -0.000046      0.204304
      2.52551      1.32990      3.68003        -0.084330      0.855864     -0.371420
      2.52616      2.52435      2.58796        -0.283879     -0.026130      0.885684
      3.78945      3.78945      0.99998        -0.164524      1.293472     -0.699124
      3.78144      3.20952      4.35136         0.237219      0.441733     -0.142186
      3.77219      2.53003      1.73820         0.682361     -0.210882      1.234563
      2.52610      3.71200      3.67978        -0.159286     -1.047587     -0.357501
      1.98137      1.26315      0.23497        -0.081294     -0.311697      0.077407
      0.54493      1.26315      0.23497         0.121230     -0.315157      0.113976
      1.98137      3.78945      0.23497        -0.079447      0.303130      0.069500
      0.54493      3.78945      0.23497         0.126626      0.314281      0.092576
      4.50767      1.26315      0.23497        -0.102512     -0.284513      0.170077
      3.07123      1.26315      0.23497         0.094395     -0.334565      0.024869
      4.50767      3.78945      0.23497        -0.110809      0.289585      0.137603
      3.07123      3.78945      0.23497         0.097154      0.332386      0.018967
 -----------------------------------------------------------------------------------
    total drift:                               -0.000000     -0.000000     -0.000000


--------------------------------------------------------------------------------------------------------



  ML FREE ENERGIE OF THE ION-ELECTRON SYSTEM (eV)
  ---------------------------------------------------
  free  energy ML TOTEN  =      -198.20905047 eV

  ML energy  without entropy=     -198.20905047  ML energy(sigma->0) =     -198.20905047

      MLFF:  cpu time      0.0625: real time      0.0625
     LOOP+:  cpu time      0.0634: real time      0.0634
           RANDOM_SEED =         688344966                0                0
   IONSTEP:  cpu time      0.0008: real time      0.0008

  ENERGY OF THE ELECTRON-ION-THERMOSTAT SYSTEM (eV)
  ---------------------------------------------------
% ion-electron   TOTEN  =      -198.209050  see above
  kinetic energy EKIN   =         0.063720
  kin. lattice  EKIN_LAT=         0.000000  (temperature   30.81 K)
  nose potential ES     =         0.000142
  nose kinetic   EPS    =         0.650678
  ---------------------------------------------------
  total energy   ETOTAL =      -197.494510 eV


 mean value of Nose-termostat <S>:     3.291 mean value of <T> :    56.335
 mean temperature <T/S>/<1/S>  :    56.562



--------------------------------------- Ionic step       31  -------------------------------------------


      MLFF:  cpu time      0.0672: real time      0.0672
     LOOP+:  cpu time      0.0680: real time      0.0680
           RANDOM_SEED =         688344966                0                0
   IONSTEP:  cpu time      0.0009: real time      0.0009

  ENERGY OF THE ELECTRON-ION-THERMOSTAT SYSTEM (eV)
  ---------------------------------------------------
% ion-electron   TOTEN  =      -198.216708  see above
  kinetic energy EKIN   =         0.066711
  kin. lattice  EKIN_LAT=         0.000000  (temperature   32.26 K)
  nose potential ES     =         0.000148
  nose kinetic   EPS    =         0.655046
  ---------------------------------------------------
  total energy   ETOTAL =      -197.494802 eV



--------------------------------------- Ionic step       32  -------------------------------------------


      MLFF:  cpu time      0.0624: real time      0.0625
     LOOP+:  cpu time      0.0633: real time      0.0633
           RANDOM_SEED =         688344966                0                0
   IONSTEP:  cpu time      0.0008: real time      0.0008

  ENERGY OF THE ELECTRON-ION-THERMOSTAT SYSTEM (eV)
  ---------------------------------------------------
% ion-electron   TOTEN  =      -198.229409  see above
  kinetic energy EKIN   =         0.074370
  kin. lattice  EKIN_LAT=         0.000000  (temperature   35.96 K)
  nose potential ES     =         0.000154
  nose kinetic   EPS    =         0.659846
  ---------------------------------------------------
  total energy   ETOTAL =      -197.495039 eV



--------------------------------------- Ionic step       33  -------------------------------------------


      MLFF:  cpu time      0.0621: real time      0.0621
     LOOP+:  cpu time      0.0629: real time      0.0629
           RANDOM_SEED =         688344966                0                0
   IONSTEP:  cpu time      0.0009: real time      0.0008

  ENERGY OF THE ELECTRON-ION-THERMOSTAT SYSTEM (eV)
  ---------------------------------------------------
% ion-electron   TOTEN  =      -198.242739  see above
  kinetic energy EKIN   =         0.082209
  kin. lattice  EKIN_LAT=         0.000000  (temperature   39.75 K)
  nose potential ES     =         0.000161
  nose kinetic   EPS    =         0.665226
  ---------------------------------------------------
  total energy   ETOTAL =      -197.495142 eV



--------------------------------------- Ionic step       34  -------------------------------------------


      MLFF:  cpu time      0.0620: real time      0.0621
     LOOP+:  cpu time      0.0629: real time      0.0629
           RANDOM_SEED =         688344966                0                0
   IONSTEP:  cpu time      0.0008: real time      0.0008

  ENERGY OF THE ELECTRON-ION-THERMOSTAT SYSTEM (eV)
  ---------------------------------------------------
% ion-electron   TOTEN  =      -198.253894  see above
  kinetic energy EKIN   =         0.087505
  kin. lattice  EKIN_LAT=         0.000000  (temperature   42.31 K)
  nose potential ES     =         0.000167
  nose kinetic   EPS    =         0.671091
  ---------------------------------------------------
  total energy   ETOTAL =      -197.495131 eV



--------------------------------------- Ionic step       35  -------------------------------------------


      MLFF:  cpu time      0.0617: real time      0.0617
     LOOP+:  cpu time      0.0625: real time      0.0625
           RANDOM_SEED =         688344966                0                0
   IONSTEP:  cpu time      0.0008: real time      0.0008

  ENERGY OF THE ELECTRON-ION-THERMOSTAT SYSTEM (eV)
  ---------------------------------------------------
% ion-electron   TOTEN  =      -198.261692  see above
  kinetic energy EKIN   =         0.089233
  kin. lattice  EKIN_LAT=         0.000000  (temperature   43.15 K)
  nose potential ES     =         0.000174
  nose kinetic   EPS    =         0.677223
  ---------------------------------------------------
  total energy   ETOTAL =      -197.495063 eV



--------------------------------------- Ionic step       36  -------------------------------------------


      MLFF:  cpu time      0.0620: real time      0.0620
     LOOP+:  cpu time      0.0628: real time      0.0628
           RANDOM_SEED =         688344966                0                0
   IONSTEP:  cpu time      0.0009: real time      0.0009

  ENERGY OF THE ELECTRON-ION-THERMOSTAT SYSTEM (eV)
  ---------------------------------------------------
% ion-electron   TOTEN  =      -198.265838  see above
  kinetic energy EKIN   =         0.087301
  kin. lattice  EKIN_LAT=         0.000000  (temperature   42.21 K)
  nose potential ES     =         0.000180
  nose kinetic   EPS    =         0.683370
  ---------------------------------------------------
  total energy   ETOTAL =      -197.494986 eV



--------------------------------------- Ionic step       37  -------------------------------------------


      MLFF:  cpu time      0.0634: real time      0.0634
     LOOP+:  cpu time      0.0643: real time      0.0643
           RANDOM_SEED =         688344966                0                0
   IONSTEP:  cpu time      0.0009: real time      0.0009

  ENERGY OF THE ELECTRON-ION-THERMOSTAT SYSTEM (eV)
  ---------------------------------------------------
% ion-electron   TOTEN  =      -198.266237  see above
  kinetic energy EKIN   =         0.081850
  kin. lattice  EKIN_LAT=         0.000000  (temperature   39.58 K)
  nose potential ES     =         0.000187
  nose kinetic   EPS    =         0.689288
  ---------------------------------------------------
  total energy   ETOTAL =      -197.494912 eV



--------------------------------------- Ionic step       38  -------------------------------------------


      MLFF:  cpu time      0.0620: real time      0.0620
     LOOP+:  cpu time      0.0629: real time      0.0629
           RANDOM_SEED =         688344966                0                0
   IONSTEP:  cpu time      0.0008: real time      0.0008

  ENERGY OF THE ELECTRON-ION-THERMOSTAT SYSTEM (eV)
  ---------------------------------------------------
% ion-electron   TOTEN  =      -198.262810  see above
  kinetic energy EKIN   =         0.073066
  kin. lattice  EKIN_LAT=         0.000000  (temperature   35.33 K)
  nose potential ES     =         0.000194
  nose kinetic   EPS    =         0.694736
  ---------------------------------------------------
  total energy   ETOTAL =      -197.494815 eV



--------------------------------------- Ionic step       39  -------------------------------------------


      MLFF:  cpu time      0.0625: real time      0.0625
     LOOP+:  cpu time      0.0634: real time      0.0634
           RANDOM_SEED =         688344966                0                0
   IONSTEP:  cpu time      0.0008: real time      0.0008

  ENERGY OF THE ELECTRON-ION-THERMOSTAT SYSTEM (eV)
  ---------------------------------------------------
% ion-electron   TOTEN  =      -198.255921  see above
  kinetic energy EKIN   =         0.061575
  kin. lattice  EKIN_LAT=         0.000000  (temperature   29.77 K)
  nose potential ES     =         0.000201
  nose kinetic   EPS    =         0.699489
  ---------------------------------------------------
  total energy   ETOTAL =      -197.494655 eV



--------------------------------------- Ionic step       40  -------------------------------------------



  ML FORCE on cell =-STRESS in cart. coord. units (eV/cell)
  Direction    XX          YY          ZZ          XY          YZ          ZX
  --------------------------------------------------------------------------------------
  Total:    -60.46873   -15.05861    -3.64373     0.06676     0.25241     0.36872
  in kB    -260.41836   -64.85233   -15.69231     0.28752     1.08705     1.58797
  external pressure =     -113.65 kB  Pullay stress =        0.00 kB

  kinetic pressure (ideal gas correction) =      0.16 kB
  total pressure  =   -113.49 kB
  Total+kin.  -260.366     -64.696     -15.414       0.282       1.103       1.648
  volume of cell :      372.02
      direct lattice vectors                 reciprocal lattice vectors
     5.052600000  0.000000000  0.000000000     0.197917904  0.000000000  0.000000000
     0.000000000  5.052600000  0.000000000     0.000000000  0.197917904  0.000000000
     0.000000000  0.000000000 14.572700000     0.000000000  0.000000000  0.068621463

  length of vectors
     5.052600000  5.052600000 14.572700000     0.197917904  0.197917904  0.068621463


  POSITION                                       TOTAL-FORCE (eV/Angst) (ML)
 -----------------------------------------------------------------------------------
      5.04421      5.04703      2.88021        -0.035561      0.193425     -0.322501
      1.26315      1.26315      0.99998        -0.100188     -0.815452      0.261356
      1.25529      1.83444      4.36820        -0.036277     -0.201122     -0.133387
      1.25420      0.00232      1.90822         0.124280     -0.177523     -0.111241
      5.04433      1.36571      3.67390         0.104520     -0.781832      0.375570
      5.04720      2.51777      2.62923         0.067331      0.326253     -0.095682
      1.26315      3.78945      0.99998        -0.100481      0.815338      0.302806
      1.25755      3.21191      4.36618        -0.224175      0.166675     -0.116021
      1.25755      2.52539      1.79398         0.121146     -0.000679     -0.924150
      5.03920      3.68769      3.67785         0.333102      0.324891      0.344060
      2.51589      5.05178      2.88150         0.068403     -0.195996     -0.336204
      3.78945      1.26315      0.99998         0.001348     -0.955268      0.288617
      3.78420      1.83439      4.36304        -0.054028     -0.292331     -0.022575
      3.78591      5.04939      1.91333        -0.073199      0.060387     -0.247003
      2.51821      1.35835      3.67559         0.003733     -0.458652      0.390065
      2.51729      2.52115      2.63790         0.276265      0.010238     -0.568582
      3.78945      3.78945      0.99998        -0.001926      0.665506      0.385567
      3.78457      3.21006      4.37882        -0.148705      0.293308     -0.389372
      3.79403      2.52071      1.79557        -0.475054      0.201843     -0.945392
      2.51697      3.67712      3.67721         0.137776      0.824882      0.343704
      1.98137      1.26315      0.23497        -0.115647     -0.205061      0.222547
      0.54493      1.26315      0.23497         0.092845     -0.198467      0.141864
      1.98137      3.78945      0.23497        -0.121475      0.203555      0.235613
      0.54493      3.78945      0.23497         0.094859      0.204024      0.151051
      4.50767      1.26315      0.23497        -0.089555     -0.218154      0.159254
      3.07123      1.26315      0.23497         0.118590     -0.198164      0.204663
      4.50767      3.78945      0.23497        -0.091660      0.217419      0.185108
      3.07123      3.78945      0.23497         0.123733      0.190956      0.220265
 -----------------------------------------------------------------------------------
    total drift:                               -0.000000     -0.000000      0.000000


--------------------------------------------------------------------------------------------------------



  ML FREE ENERGIE OF THE ION-ELECTRON SYSTEM (eV)
  ---------------------------------------------------
  free  energy ML TOTEN  =      -198.24707763 eV

  ML energy  without entropy=     -198.24707763  ML energy(sigma->0) =     -198.24707763

      MLFF:  cpu time      0.0626: real time      0.0626
[...]
     LOOP+:  cpu time      0.0631: real time      0.0631
           RANDOM_SEED =         688344966                0                0
   IONSTEP:  cpu time      0.0009: real time      0.0009

  ENERGY OF THE ELECTRON-ION-THERMOSTAT SYSTEM (eV)
  ---------------------------------------------------
% ion-electron   TOTEN  =      -198.319752  see above
  kinetic energy EKIN   =         0.000009
  kin. lattice  EKIN_LAT=         0.000000  (temperature    0.00 K)
  nose potential ES     =         0.005144
  nose kinetic   EPS    =         0.824131
  ---------------------------------------------------
  total energy   ETOTAL =      -197.490468 eV



--------------------------------------- Ionic step      289  -------------------------------------------


      MLFF:  cpu time      0.0623: real time      0.0623
     LOOP+:  cpu time      0.0632: real time      0.0632
           RANDOM_SEED =         688344966                0                0
   IONSTEP:  cpu time      0.0009: real time      0.0009

  ENERGY OF THE ELECTRON-ION-THERMOSTAT SYSTEM (eV)
  ---------------------------------------------------
% ion-electron   TOTEN  =      -198.319752  see above
  kinetic energy EKIN   =         0.000009
  kin. lattice  EKIN_LAT=         0.000000  (temperature    0.00 K)
  nose potential ES     =         0.005177
  nose kinetic   EPS    =         0.824116
  ---------------------------------------------------
  total energy   ETOTAL =      -197.490450 eV



--------------------------------------- Ionic step      290  -------------------------------------------



  ML FORCE on cell =-STRESS in cart. coord. units (eV/cell)
  Direction    XX          YY          ZZ          XY          YZ          ZX
  --------------------------------------------------------------------------------------
  Total:    -59.09522   -15.20589    -0.80288    -0.00063    -0.00402     0.00240
  in kB    -254.50308   -65.48660    -3.45775    -0.00273    -0.01733     0.01034
  external pressure =     -107.82 kB  Pullay stress =        0.00 kB

  kinetic pressure (ideal gas correction) =      0.00 kB
  total pressure  =   -107.82 kB
  Total+kin.  -254.503     -65.487      -3.458      -0.003      -0.017       0.010
  volume of cell :      372.02
      direct lattice vectors                 reciprocal lattice vectors
     5.052600000  0.000000000  0.000000000     0.197917904  0.000000000  0.000000000
     0.000000000  5.052600000  0.000000000     0.000000000  0.197917904  0.000000000
     0.000000000  0.000000000 14.572700000     0.000000000  0.000000000  0.068621463

  length of vectors
     5.052600000  5.052600000 14.572700000     0.197917904  0.197917904  0.068621463


  POSITION                                       TOTAL-FORCE (eV/Angst) (ML)
 -----------------------------------------------------------------------------------
      5.05254      0.00001      2.86043         0.001145      0.001693     -0.006620
      1.26315      1.26315      0.99998        -0.000743     -0.976144     -0.265836
      1.26308      1.83474      4.34489         0.001680      0.003112     -0.000781
      1.26313      0.00001      1.89843        -0.000251      0.000182      0.004511
      5.05257      1.35301      3.66583         0.001029     -0.003387     -0.000808
      5.05256      2.52635      2.61043         0.000809     -0.000196      0.003365
      1.26315      3.78945      0.99998        -0.000229      0.976284     -0.265438
      1.26309      3.21801      4.34484         0.001992     -0.004511      0.000626
      1.26312      2.52629      1.76754        -0.000981      0.000409      0.001622
      5.05257      3.69976      3.66585        -0.000211      0.000108     -0.001093
      2.52623      0.00011      2.86033         0.001814     -0.004748     -0.003553
      3.78945      1.26315      0.99998         0.000693     -0.976116     -0.265641
      3.78949      1.83467      4.34483        -0.003608      0.005541      0.000394
      3.78947      0.00000      1.89844        -0.001926      0.000752      0.004430
      2.52625      1.35293      3.66583         0.000147      0.000808      0.000335
      2.52620      2.52625      2.61036         0.003590      0.002618      0.007441
      3.78945      3.78945      0.99998         0.000204      0.976098     -0.265320
      3.78944      3.21797      4.34484        -0.000790     -0.004933      0.000458
      3.78945      2.52630      1.76755        -0.001974      0.000202      0.001933
      2.52631      3.69970      3.66584        -0.002315      0.002154     -0.002051
      1.98137      1.26315      0.23497        -0.105031     -0.247417      0.131536
      0.54493      1.26315      0.23497         0.105248     -0.247386      0.131453
      1.98137      3.78945      0.23497        -0.105120      0.247352      0.131518
      0.54493      3.78945      0.23497         0.105115      0.247483      0.131526
      4.50767      1.26315      0.23497        -0.105267     -0.247343      0.131426
      3.07123      1.26315      0.23497         0.105008     -0.247486      0.131478
      4.50767      3.78945      0.23497        -0.105141      0.247446      0.131502
      3.07123      3.78945      0.23497         0.105112      0.247424      0.131588
 -----------------------------------------------------------------------------------
    total drift:                                0.000000      0.000000      0.000000


--------------------------------------------------------------------------------------------------------



  ML FREE ENERGIE OF THE ION-ELECTRON SYSTEM (eV)
  ---------------------------------------------------
  free  energy ML TOTEN  =      -198.31975198 eV

  ML energy  without entropy=     -198.31975198  ML energy(sigma->0) =     -198.31975198

      MLFF:  cpu time      0.0627: real time      0.0628
     LOOP+:  cpu time      0.0636: real time      0.0636
           RANDOM_SEED =         688344966                0                0
   IONSTEP:  cpu time      0.0009: real time      0.0009

  ENERGY OF THE ELECTRON-ION-THERMOSTAT SYSTEM (eV)
  ---------------------------------------------------
% ion-electron   TOTEN  =      -198.319752  see above
  kinetic energy EKIN   =         0.000008
  kin. lattice  EKIN_LAT=         0.000000  (temperature    0.00 K)
  nose potential ES     =         0.005210
  nose kinetic   EPS    =         0.824102
  ---------------------------------------------------
  total energy   ETOTAL =      -197.490432 eV


 mean value of Nose-termostat <S>:    12.899 mean value of <T> :     0.004
 mean temperature <T/S>/<1/S>  :     0.004



--------------------------------------- Ionic step      291  -------------------------------------------


      MLFF:  cpu time      0.0677: real time      0.0677
     LOOP+:  cpu time      0.0686: real time      0.0686
           RANDOM_SEED =         688344966                0                0
   IONSTEP:  cpu time      0.0009: real time      0.0009

  ENERGY OF THE ELECTRON-ION-THERMOSTAT SYSTEM (eV)
  ---------------------------------------------------
% ion-electron   TOTEN  =      -198.319751  see above
  kinetic energy EKIN   =         0.000006
  kin. lattice  EKIN_LAT=         0.000000  (temperature    0.00 K)
  nose potential ES     =         0.005243
  nose kinetic   EPS    =         0.824088
  ---------------------------------------------------
  total energy   ETOTAL =      -197.490414 eV



--------------------------------------- Ionic step      292  -------------------------------------------


      MLFF:  cpu time      0.0626: real time      0.0626
     LOOP+:  cpu time      0.0635: real time      0.0635
           RANDOM_SEED =         688344966                0                0
   IONSTEP:  cpu time      0.0009: real time      0.0009

  ENERGY OF THE ELECTRON-ION-THERMOSTAT SYSTEM (eV)
  ---------------------------------------------------
% ion-electron   TOTEN  =      -198.319750  see above
  kinetic energy EKIN   =         0.000005
  kin. lattice  EKIN_LAT=         0.000000  (temperature    0.00 K)
  nose potential ES     =         0.005276
  nose kinetic   EPS    =         0.824073
  ---------------------------------------------------
  total energy   ETOTAL =      -197.490396 eV



--------------------------------------- Ionic step      293  -------------------------------------------


      MLFF:  cpu time      0.0620: real time      0.0620
     LOOP+:  cpu time      0.0629: real time      0.0629
           RANDOM_SEED =         688344966                0                0
   IONSTEP:  cpu time      0.0009: real time      0.0009

  ENERGY OF THE ELECTRON-ION-THERMOSTAT SYSTEM (eV)
  ---------------------------------------------------
% ion-electron   TOTEN  =      -198.319750  see above
  kinetic energy EKIN   =         0.000004
  kin. lattice  EKIN_LAT=         0.000000  (temperature    0.00 K)
  nose potential ES     =         0.005309
  nose kinetic   EPS    =         0.824058
  ---------------------------------------------------
  total energy   ETOTAL =      -197.490378 eV



--------------------------------------- Ionic step      294  -------------------------------------------


      MLFF:  cpu time      0.0619: real time      0.0619
     LOOP+:  cpu time      0.0628: real time      0.0628
           RANDOM_SEED =         688344966                0                0
   IONSTEP:  cpu time      0.0009: real time      0.0009

  ENERGY OF THE ELECTRON-ION-THERMOSTAT SYSTEM (eV)
  ---------------------------------------------------
% ion-electron   TOTEN  =      -198.319750  see above
  kinetic energy EKIN   =         0.000004
  kin. lattice  EKIN_LAT=         0.000000  (temperature    0.00 K)
  nose potential ES     =         0.005343
  nose kinetic   EPS    =         0.824044
  ---------------------------------------------------
  total energy   ETOTAL =      -197.490360 eV



--------------------------------------- Ionic step      295  -------------------------------------------


      MLFF:  cpu time      0.0627: real time      0.0627
     LOOP+:  cpu time      0.0635: real time      0.0636
           RANDOM_SEED =         688344966                0                0
   IONSTEP:  cpu time      0.0009: real time      0.0009

  ENERGY OF THE ELECTRON-ION-THERMOSTAT SYSTEM (eV)
  ---------------------------------------------------
% ion-electron   TOTEN  =      -198.319750  see above
  kinetic energy EKIN   =         0.000004
  kin. lattice  EKIN_LAT=         0.000000  (temperature    0.00 K)
  nose potential ES     =         0.005376
  nose kinetic   EPS    =         0.824029
  ---------------------------------------------------
  total energy   ETOTAL =      -197.490341 eV



--------------------------------------- Ionic step      296  -------------------------------------------


      MLFF:  cpu time      0.0625: real time      0.0625
     LOOP+:  cpu time      0.0634: real time      0.0634
           RANDOM_SEED =         688344966                0                0
   IONSTEP:  cpu time      0.0009: real time      0.0009

  ENERGY OF THE ELECTRON-ION-THERMOSTAT SYSTEM (eV)
  ---------------------------------------------------
% ion-electron   TOTEN  =      -198.319751  see above
  kinetic energy EKIN   =         0.000005
  kin. lattice  EKIN_LAT=         0.000000  (temperature    0.00 K)
  nose potential ES     =         0.005409
  nose kinetic   EPS    =         0.824014
  ---------------------------------------------------
  total energy   ETOTAL =      -197.490323 eV



--------------------------------------- Ionic step      297  -------------------------------------------


      MLFF:  cpu time      0.0621: real time      0.0621
     LOOP+:  cpu time      0.0630: real time      0.0630
           RANDOM_SEED =         688344966                0                0
   IONSTEP:  cpu time      0.0009: real time      0.0009

  ENERGY OF THE ELECTRON-ION-THERMOSTAT SYSTEM (eV)
  ---------------------------------------------------
% ion-electron   TOTEN  =      -198.319752  see above
  kinetic energy EKIN   =         0.000005
  kin. lattice  EKIN_LAT=         0.000000  (temperature    0.00 K)
  nose potential ES     =         0.005443
  nose kinetic   EPS    =         0.823999
  ---------------------------------------------------
  total energy   ETOTAL =      -197.490305 eV



--------------------------------------- Ionic step      298  -------------------------------------------


      MLFF:  cpu time      0.0622: real time      0.0622
     LOOP+:  cpu time      0.0630: real time      0.0630
           RANDOM_SEED =         688344966                0                0
   IONSTEP:  cpu time      0.0008: real time      0.0009

  ENERGY OF THE ELECTRON-ION-THERMOSTAT SYSTEM (eV)
  ---------------------------------------------------
% ion-electron   TOTEN  =      -198.319752  see above
  kinetic energy EKIN   =         0.000005
  kin. lattice  EKIN_LAT=         0.000000  (temperature    0.00 K)
  nose potential ES     =         0.005477
  nose kinetic   EPS    =         0.823984
  ---------------------------------------------------
  total energy   ETOTAL =      -197.490286 eV



--------------------------------------- Ionic step      299  -------------------------------------------


      MLFF:  cpu time      0.0624: real time      0.0624
     LOOP+:  cpu time      0.0632: real time      0.0632
           RANDOM_SEED =         688344966                0                0
   IONSTEP:  cpu time      0.0009: real time      0.0009

  ENERGY OF THE ELECTRON-ION-THERMOSTAT SYSTEM (eV)
  ---------------------------------------------------
% ion-electron   TOTEN  =      -198.319752  see above
  kinetic energy EKIN   =         0.000005
  kin. lattice  EKIN_LAT=         0.000000  (temperature    0.00 K)
  nose potential ES     =         0.005510
  nose kinetic   EPS    =         0.823969
  ---------------------------------------------------
  total energy   ETOTAL =      -197.490268 eV



--------------------------------------- Ionic step      300  -------------------------------------------



  ML FORCE on cell =-STRESS in cart. coord. units (eV/cell)
  Direction    XX          YY          ZZ          XY          YZ          ZX
  --------------------------------------------------------------------------------------
  Total:    -59.11976   -15.20329    -0.83158     0.00067    -0.00070    -0.00179
  in kB    -254.60878   -65.47542    -3.58134     0.00288    -0.00300    -0.00771
  external pressure =     -107.89 kB  Pullay stress =        0.00 kB

  kinetic pressure (ideal gas correction) =      0.00 kB
  total pressure  =   -107.89 kB
  Total+kin.  -254.609     -65.475      -3.581       0.003      -0.003      -0.008
  volume of cell :      372.02
      direct lattice vectors                 reciprocal lattice vectors
     5.052600000  0.000000000  0.000000000     0.197917904  0.000000000  0.000000000
     0.000000000  5.052600000  0.000000000     0.000000000  0.197917904  0.000000000
     0.000000000  0.000000000 14.572700000     0.000000000  0.000000000  0.068621463

  length of vectors
     5.052600000  5.052600000 14.572700000     0.197917904  0.197917904  0.068621463


  POSITION                                       TOTAL-FORCE (eV/Angst) (ML)
 -----------------------------------------------------------------------------------
      0.00001      0.00002      2.86021        -0.000867     -0.000848      0.005276
      1.26315      1.26315      0.99998         0.000348     -0.974702     -0.261127
      1.26322      1.83476      4.34505        -0.001950     -0.004214     -0.001956
      1.26311      5.05259      1.89864         0.001435      0.000139     -0.003826
      0.00003      1.35286      3.66600        -0.000873      0.003804     -0.000049
      0.00003      2.52628      2.61067        -0.000342      0.000184     -0.000222
      1.26315      3.78945      0.99998        -0.000035      0.973972     -0.261244
      1.26320      3.21788      4.34503        -0.001800      0.004400     -0.001718
      1.26319      2.52629      1.76769        -0.000309      0.000802      0.000874
      0.00001      3.69971      3.66598         0.000218     -0.001551     -0.000089
      2.52633      5.05253      2.86031        -0.001567      0.004146      0.001932
      3.78945      1.26315      0.99998        -0.000862     -0.974110     -0.261531
      3.78941      1.83483      4.34501         0.002959     -0.007651     -0.001013
      3.78938      0.00002      1.89859         0.002273     -0.001471     -0.002998
      2.52633      1.35290      3.66602        -0.000220      0.001061     -0.001058
      2.52636      2.52635      2.61073        -0.001780     -0.001871     -0.003812
      3.78945      3.78945      0.99998        -0.000496      0.974642     -0.261571
      3.78944      3.21788      4.34509         0.001064      0.006498     -0.002929
      3.78945      2.52630      1.76769         0.001265      0.000311      0.000766
      2.52630      3.69977      3.66597         0.001367     -0.003522      0.000910
      1.98137      1.26315      0.23497        -0.105226     -0.247588      0.131993
      0.54493      1.26315      0.23497         0.105069     -0.247353      0.131954
      1.98137      3.78945      0.23497        -0.105112      0.247603      0.131975
      0.54493      3.78945      0.23497         0.105115      0.247262      0.131827
      4.50767      1.26315      0.23497        -0.104985     -0.247485      0.132009
      3.07123      1.26315      0.23497         0.105234     -0.247241      0.131863
      4.50767      3.78945      0.23497        -0.105092      0.247463      0.131952
      3.07123      3.78945      0.23497         0.105169      0.247321      0.131814
 -----------------------------------------------------------------------------------
    total drift:                               -0.000000     -0.000000      0.000000


--------------------------------------------------------------------------------------------------------



  ML FREE ENERGIE OF THE ION-ELECTRON SYSTEM (eV)
  ---------------------------------------------------
  free  energy ML TOTEN  =      -198.31975267 eV

  ML energy  without entropy=     -198.31975267  ML energy(sigma->0) =     -198.31975267

      MLFF:  cpu time      0.0627: real time      0.0627
     LOOP+:  cpu time      0.0636: real time      0.0636
           RANDOM_SEED =         688344966                0                0
   IONSTEP:  cpu time      0.0009: real time      0.0009

  ENERGY OF THE ELECTRON-ION-THERMOSTAT SYSTEM (eV)
  ---------------------------------------------------
% ion-electron   TOTEN  =      -198.319753  see above
  kinetic energy EKIN   =         0.000005
  kin. lattice  EKIN_LAT=         0.000000  (temperature    0.00 K)
  nose potential ES     =         0.005544
  nose kinetic   EPS    =         0.823954
  ---------------------------------------------------
  total energy   ETOTAL =      -197.490250 eV


 mean value of Nose-termostat <S>:    13.273 mean value of <T> :     0.002
 mean temperature <T/S>/<1/S>  :     0.002

      MLFF:  cpu time      0.0066: real time      0.0066
     LOOP+:  cpu time      0.0074: real time      0.0074

 total amount of memory used by VASP MPI-rank0    30000. kBytes
=======================================================================

   base      :      30000. kBytes

  
  
 General timing and accounting informations for this job:
 ========================================================
  
                  Total CPU time used (sec):       19.610
                            User time (sec):       16.856
                          System time (sec):        2.754
                         Elapsed time (sec):       19.814
  
                   Maximum memory used (kb):       77404.
                   Average memory used (kb):          N/A
  
                          Minor page faults:       685207
                          Major page faults:            0
                 Voluntary context switches:         1208
