<?xml version="1.0" encoding="ISO-8859-1"?>
<modeling>
 <generator>
  <i name="program" type="string">vasp </i>
  <i name="version" type="string">6.4.2  </i>
  <i name="subversion" type="string">20Jul23 (build Oct 18 2023 12:49:41) complex                          parallel </i>
  <i name="platform" type="string">LinuxGNU </i>
  <i name="date" type="string">2025 06 06 </i>
  <i name="time" type="string">15:29:49 </i>
 </generator>
 <incar>
  <i type="string" name="SYSTEM">C100</i>
  <i type="int" name="NSIM">     4</i>
  <i type="int" name="IBRION">     0</i>
  <i type="int" name="NSW">   300</i>
  <i type="int" name="ISIF">     2</i>
  <i type="int" name="ISYM">     0</i>
  <i type="int" name="NBLOCK">    10</i>
  <i name="POTIM">      1.50000000</i>
  <i name="TEEND">      0.10000000</i>
  <i name="SMASS">      1.00000000</i>
  <v type="int" name="RANDOM_SEED">******     0     0</v>
  <i type="logical" name="ML_LMLFF"> T  </i>
  <i type="string" name="ML_MODE">run</i>
  <i type="logical" name="LDIPOL"> T  </i>
  <i type="int" name="IDIPOL">     3</i>
  <i type="int" name="MDALGO">     2</i>
 </incar>
 <primitive_cell>
  <structure name="primitive_cell" >
   <crystal>
    <varray name="basis" >
     <v>       5.05260000       0.00000000       0.00000000 </v>
     <v>       0.00000000       5.05260000       0.00000000 </v>
     <v>       0.00000000       0.00000000      14.57270000 </v>
    </varray>
    <i name="volume">    372.02305936 </i>
    <varray name="rec_basis" >
     <v>       0.19791790       0.00000000       0.00000000 </v>
     <v>       0.00000000       0.19791790       0.00000000 </v>
     <v>       0.00000000       0.00000000       0.06862146 </v>
    </varray>
   </crystal>
   <varray name="positions" >
    <v>       0.00000696       0.99652502       0.19642089 </v>
    <v>       0.25000000       0.25000000       0.06862000 </v>
    <v>       0.25429840       0.36490164       0.29668537 </v>
    <v>       0.25267685       0.99913795       0.13163545 </v>
    <v>       0.00376875       0.27221353       0.24988604 </v>
    <v>       0.00141223       0.50233470       0.17901080 </v>
    <v>       0.25000000       0.75000000       0.06862000 </v>
    <v>       0.25438132       0.63344303       0.29641914 </v>
    <v>       0.25103684       0.49948991       0.12149763 </v>
    <v>       0.00380531       0.73118965       0.24918263 </v>
    <v>       0.50025674       0.00152352       0.19597555 </v>
    <v>       0.75000000       0.25000000       0.06862000 </v>
    <v>       0.75584091       0.36536440       0.29622947 </v>
    <v>       0.75224322       0.00085449       0.13139221 </v>
    <v>       0.50306123       0.27029554       0.25030061 </v>
    <v>       0.50315047       0.49953041       0.17863245 </v>
    <v>       0.75000000       0.75000000       0.06862000 </v>
    <v>       0.75448864       0.63640999       0.29698274 </v>
    <v>       0.75720618       0.50087830       0.12133587 </v>
    <v>       0.50383401       0.72873888       0.25010799 </v>
    <v>       0.39214934       0.25000000       0.01612382 </v>
    <v>       0.10785066       0.25000000       0.01612382 </v>
    <v>       0.39214934       0.75000000       0.01612382 </v>
    <v>       0.10785066       0.75000000       0.01612382 </v>
    <v>       0.89214934       0.25000000       0.01612382 </v>
    <v>       0.60785066       0.25000000       0.01612382 </v>
    <v>       0.89214934       0.75000000       0.01612382 </v>
    <v>       0.60785066       0.75000000       0.01612382 </v>
   </varray>
  </structure>
  <varray name="primitive_index" >
   <v type="int" >        1 </v>
   <v type="int" >        2 </v>
   <v type="int" >        3 </v>
   <v type="int" >        4 </v>
   <v type="int" >        5 </v>
   <v type="int" >        6 </v>
   <v type="int" >        7 </v>
   <v type="int" >        8 </v>
   <v type="int" >        9 </v>
   <v type="int" >       10 </v>
   <v type="int" >       11 </v>
   <v type="int" >       12 </v>
   <v type="int" >       13 </v>
   <v type="int" >       14 </v>
   <v type="int" >       15 </v>
   <v type="int" >       16 </v>
   <v type="int" >       17 </v>
   <v type="int" >       18 </v>
   <v type="int" >       19 </v>
   <v type="int" >       20 </v>
   <v type="int" >       21 </v>
   <v type="int" >       22 </v>
   <v type="int" >       23 </v>
   <v type="int" >       24 </v>
   <v type="int" >       25 </v>
   <v type="int" >       26 </v>
   <v type="int" >       27 </v>
   <v type="int" >       28 </v>
  </varray>
 </primitive_cell>
 <kpoints>
  <generation param="Gamma">
   <v type="int" name="divisions">       2        2        1 </v>
   <v name="usershift">      0.00000000       0.00000000       0.00000000 </v>
   <v name="genvec1">      0.50000000       0.00000000       0.00000000 </v>
   <v name="genvec2">      0.00000000       0.50000000       0.00000000 </v>
   <v name="genvec3">      0.00000000       0.00000000       1.00000000 </v>
   <v name="shift">      0.00000000       0.00000000       0.00000000 </v>
  </generation>
  <varray name="kpointlist" >
   <v>       0.00000000       0.00000000       0.00000000 </v>
   <v>       0.50000000       0.00000000       0.00000000 </v>
   <v>       0.00000000       0.50000000       0.00000000 </v>
   <v>       0.50000000       0.50000000       0.00000000 </v>
  </varray>
  <varray name="weights" >
   <v>       0.25000000 </v>
   <v>       0.25000000 </v>
   <v>       0.25000000 </v>
   <v>       0.25000000 </v>
  </varray>
 </kpoints>
 <parameters>
  <separator name="general" >
   <i type="string" name="SYSTEM">C100</i>
   <i type="logical" name="LCOMPAT"> F  </i>
  </separator>
  <separator name="electronic" >
   <i type="string" name="PREC">normal</i>
   <i name="ENMAX">      1.00000000</i>
   <i name="ENAUG">    644.87300000</i>
   <i name="EDIFF">      0.00010000</i>
   <i type="int" name="IALGO">    38</i>
   <i type="int" name="IWAVPR">    11</i>
   <i type="int" name="NBANDS">    64</i>
   <i type="int" name="NBANDSLOW">    -1</i>
   <i type="int" name="NBANDSHIGH">    -1</i>
   <i name="NELECT">     88.00000000</i>
   <i type="int" name="TURBO">     0</i>
   <i type="int" name="IRESTART">     0</i>
   <i type="int" name="NREBOOT">     0</i>
   <i type="int" name="NMIN">     0</i>
   <i name="EREF">      0.00000000</i>
   <separator name="electronic smearing" >
    <i type="int" name="ISMEAR">     1</i>
    <i name="SIGMA">      0.20000000</i>
    <i name="KSPACING">      0.50000000</i>
    <i type="logical" name="KGAMMA"> T  </i>
    <i type="logical" name="KBLOWUP"> T  </i>
   </separator>
   <separator name="electronic projectors" >
    <i type="logical" name="LREAL"> F  </i>
    <v name="ROPT">      0.00000000      0.00000000</v>
    <i type="int" name="LMAXPAW">  -100</i>
    <i type="int" name="LMAXMIX">     2</i>
    <i type="logical" name="NLSPLINE"> F  </i>
   </separator>
   <separator name="electronic startup" >
    <i type="int" name="ISTART">     0</i>
    <i type="int" name="ICHARG">     2</i>
    <i type="int" name="INIWAV">     1</i>
   </separator>
   <separator name="electronic spin" >
    <i type="int" name="ISPIN">     1</i>
    <i type="logical" name="LNONCOLLINEAR"> F  </i>
    <v name="MAGMOM">      1.00000000      1.00000000      1.00000000      1.00000000      1.00000000      1.00000000      1.00000000      1.00000000      1.00000000      1.00000000      1.00000000      1.00000000      1.00000000      1.00000000      1.00000000      1.00000000      1.00000000      1.00000000      1.00000000      1.00000000
      1.00000000      1.00000000      1.00000000      1.00000000      1.00000000      1.00000000      1.00000000      1.00000000</v>
    <i name="NUPDOWN">     -1.00000000</i>
    <i type="logical" name="LSORBIT"> F  </i>
    <v name="SAXIS">      0.00000000      0.00000000      1.00000000</v>
    <i type="logical" name="LSPIRAL"> F  </i>
    <v name="QSPIRAL">      0.00000000      0.00000000      0.00000000</v>
    <i type="logical" name="LZEROZ"> F  </i>
   </separator>
   <separator name="electronic exchange-correlation" >
    <i type="logical" name="LASPH"> F  </i>
    <i type="logical" name="LMETAGGA"> F  </i>
   </separator>
   <separator name="electronic convergence" >
    <i type="int" name="NELM">    60</i>
    <i type="int" name="NELMDL">    -5</i>
    <i type="int" name="NELMIN">     2</i>
    <i name="ENINI">      1.00000000</i>
    <separator name="electronic convergence detail" >
     <i type="logical" name="LDIAG"> T  </i>
     <i type="logical" name="LSUBROT"> F  </i>
     <i name="WEIMIN">      0.00100000</i>
     <i name="EBREAK">      0.00000039</i>
     <i name="DEPER">      0.30000000</i>
     <i type="int" name="NRMM">     4</i>
     <i name="TIME">      0.40000000</i>
    </separator>
   </separator>
   <separator name="electronic mixer" >
    <i name="AMIX">      0.40000000</i>
    <i name="BMIX">      1.00000000</i>
    <i name="AMIN">      0.10000000</i>
    <i name="AMIX_MAG">      1.60000000</i>
    <i name="BMIX_MAG">      1.00000000</i>
    <separator name="electronic mixer details" >
     <i type="int" name="IMIX">     4</i>
     <i type="logical" name="MIXFIRST"> F  </i>
     <i type="int" name="MAXMIX">   -45</i>
     <i name="WC">    100.00000000</i>
     <i type="int" name="INIMIX">     1</i>
     <i type="int" name="MIXPRE">     1</i>
     <i type="int" name="MREMOVE">     5</i>
    </separator>
   </separator>
   <separator name="electronic dipolcorrection" >
    <i type="logical" name="LDIPOL"> T  </i>
    <i type="logical" name="LMONO"> F  </i>
    <i type="int" name="IDIPOL">     3</i>
    <i name="EPSILON">      1.00000000</i>
    <v name="DIPOL">   -100.00000000   -100.00000000   -100.00000000</v>
    <i name="EFIELD">      0.00000000</i>
   </separator>
  </separator>
  <separator name="grids" >
   <i type="int" name="NGX">     2</i>
   <i type="int" name="NGY">     2</i>
   <i type="int" name="NGZ">     2</i>
   <i type="int" name="NGXF">     2</i>
   <i type="int" name="NGYF">     2</i>
   <i type="int" name="NGZF">     2</i>
   <i type="logical" name="ADDGRID"> F  </i>
  </separator>
  <separator name="ionic" >
   <i type="int" name="NSW">   300</i>
   <i type="int" name="IBRION">     0</i>
   <i type="int" name="MDALGO">     2</i>
   <i type="int" name="ISIF">     2</i>
   <i name="PSTRESS">      0.00000000</i>
   <i name="EDIFFG">      0.00100000</i>
   <i type="int" name="NFREE">     0</i>
   <i name="POTIM">      1.50000000</i>
   <i name="SMASS">      1.00000000</i>
   <i name="SCALEE">      1.00000000</i>
  </separator>
  <separator name="ionic md" >
   <i name="TEBEG">      0.00010000</i>
   <i name="TEEND">      0.10000000</i>
   <i type="int" name="NBLOCK">    10</i>
   <i type="int" name="KBLOCK">     1</i>
   <i type="int" name="NPACO">   256</i>
   <i name="APACO">     10.00000000</i>
  </separator>
  <separator name="symmetry" >
   <i type="int" name="ISYM">     0</i>
   <i name="SYMPREC">      0.00001000</i>
  </separator>
  <separator name="dos" >
   <i type="int" name="LORBIT">     0</i>
   <v name="RWIGS">     -1.00000000     -1.00000000</v>
   <i type="int" name="NEDOS">   301</i>
   <i name="EMIN">     10.00000000</i>
   <i name="EMAX">    -10.00000000</i>
   <i name="EFERMI">      0.00000000</i>
  </separator>
  <separator name="writing" >
   <i type="int" name="NWRITE">     2</i>
   <i type="logical" name="LWAVE"> T  </i>
   <i type="logical" name="LDOWNSAMPLE"> F  </i>
   <i type="logical" name="LCHARG"> T  </i>
   <i type="logical" name="LPARD"> F  </i>
   <i type="logical" name="LVTOT"> F  </i>
   <i type="logical" name="LVHAR"> F  </i>
   <i type="logical" name="LELF"> F  </i>
   <i type="logical" name="LOPTICS"> F  </i>
   <v name="STM">      0.00000000      0.00000000      0.00000000      0.00000000      0.00000000      0.00000000      0.00000000</v>
  </separator>
  <separator name="performance" >
   <i type="int" name="NPAR">     8</i>
   <i type="int" name="NSIM">     4</i>
   <i type="int" name="NBLK">    -1</i>
   <i type="logical" name="LPLANE"> T  </i>
   <i type="logical" name="LSCALAPACK"> T  </i>
   <i type="logical" name="LSCAAWARE"> T  </i>
   <i type="logical" name="LSCALU"> F  </i>
   <i type="logical" name="LASYNC"> F  </i>
   <i type="logical" name="LORBITALREAL"> F  </i>
  </separator>
  <separator name="miscellaneous" >
   <i type="int" name="IDIOT">     3</i>
   <i type="int" name="PHON_NSTRUCT">    -1</i>
   <i type="logical" name="LMUSIC"> F  </i>
   <v name="POMASS">     12.01100000      1.00000000</v>
   <v name="DARWINR">      0.00000000      0.00000000</v>
   <v name="DARWINV">      1.00000000      1.00000000</v>
   <i type="logical" name="LCORR"> T  </i>
  </separator>
  <i type="logical" name="GGA_COMPAT"> T  </i>
  <i type="logical" name="LBERRY"> F  </i>
  <i type="int" name="ICORELEVEL">     0</i>
  <i type="logical" name="LDAU"> F  </i>
  <i type="int" name="I_CONSTRAINED_M">     0</i>
  <separator name="electronic exchange-correlation" >
   <i type="string" name="GGA">--</i>
   <i type="int" name="VOSKOWN">     0</i>
   <i type="logical" name="LHFCALC"> F  </i>
   <i type="string" name="PRECFOCK"></i>
   <i type="logical" name="LSYMGRAD"> F  </i>
   <i type="logical" name="LHFONE"> F  </i>
   <i type="logical" name="LRHFCALC"> F  </i>
   <i type="logical" name="LTHOMAS"> F  </i>
   <i type="logical" name="LMODELHF"> F  </i>
   <i type="logical" name="LFOCKACE"> F  </i>
   <i name="ENCUT4O">     -1.00000000</i>
   <i type="int" name="EXXOEP">     0</i>
   <i type="int" name="FOURORBIT">     0</i>
   <i name="AEXX">      0.00000000</i>
   <i name="HFALPHA">      0.00000000</i>
   <i name="MCALPHA">      0.00000000</i>
   <i name="ALDAX">      1.00000000</i>
   <i name="AGGAX">      1.00000000</i>
   <i name="ALDAC">      1.00000000</i>
   <i name="AGGAC">      1.00000000</i>
   <i type="int" name="NKREDX">     1</i>
   <i type="int" name="NKREDY">     1</i>
   <i type="int" name="NKREDZ">     1</i>
   <i type="logical" name="SHIFTRED"> F  </i>
   <i type="logical" name="ODDONLY"> F  </i>
   <i type="logical" name="EVENONLY"> F  </i>
   <i type="int" name="LMAXFOCK">     0</i>
   <i type="int" name="NMAXFOCKAE">     0</i>
   <i type="logical" name="LFOCKAEDFT"> F  </i>
   <i name="HFSCREEN">      0.00000000</i>
   <i name="HFSCREENC">      0.00000000</i>
   <i type="int" name="NBANDSGWLOW">     0</i>
  </separator>
  <separator name="vdW DFT" >
   <i type="logical" name="LUSE_VDW"> F  </i>
   <i type="int" name="IVDW_NL">     1</i>
   <i type="logical" name="LSPIN_VDW"> F  </i>
   <i name="Zab_VDW">     -0.84910000</i>
   <i name="PARAM1">      0.12340000</i>
   <i name="PARAM2">      1.00000000</i>
   <i name="PARAM3">      0.00000000</i>
  </separator>
  <separator name="model GW" >
   <i type="int" name="MODEL_GW">     0</i>
   <i name="MODEL_EPS0">      7.97192270</i>
   <i name="MODEL_ALPHA">      1.00000000</i>
  </separator>
  <separator name="linear response parameters" >
   <i type="logical" name="LEPSILON"> F  </i>
   <i type="logical" name="LRPA"> F  </i>
   <i type="logical" name="LNABLA"> F  </i>
   <i type="logical" name="LVEL"> F  </i>
   <i name="CSHIFT">      0.10000000</i>
   <i name="OMEGAMAX">     -1.00000000</i>
   <i name="DEG_THRESHOLD">      0.00200000</i>
   <i name="RTIME">     -0.10000000</i>
   <i name="WPLASMAI">      0.00000000</i>
   <v name="DFIELD">      0.00000000      0.00000000      0.00000000</v>
   <v name="WPLASMA">      0.00000000      0.00000000      0.00000000      0.00000000      0.00000000      0.00000000      0.00000000      0.00000000      0.00000000</v>
  </separator>
  <separator name="orbital magnetization" >
   <i type="logical" name="NUCIND"> F  </i>
   <v name="MAGPOS">      0.00000000      0.00000000      0.00000000</v>
   <i type="logical" name="LNICSALL"> T  </i>
   <i type="logical" name="ORBITALMAG"> F  </i>
   <i type="logical" name="LMAGBLOCH"> F  </i>
   <i type="logical" name="LCHIMAG"> F  </i>
   <i type="logical" name="LGAUGE"> T  </i>
   <i type="int" name="MAGATOM">     0</i>
   <v name="MAGDIPOL">      0.00000000      0.00000000      0.00000000</v>
   <v name="AVECCONST">      0.00000000      0.00000000      0.00000000</v>
  </separator>
  <separator name="response functions" >
   <i type="logical" name="LALL_IN_ONE"> F  </i>
   <i type="int" name="IALL_IN_ONE">    -1</i>
   <i type="int" name="NBANDS_WAVE">    -1</i>
   <i type="logical" name="LFINITE_TEMPERATURE"> F  </i>
   <i type="logical" name="LADDER"> F  </i>
   <i type="logical" name="LRPAFORCE"> F  </i>
   <i type="logical" name="LFXC"> F  </i>
   <i type="logical" name="LHARTREE"> T  </i>
   <i type="int" name="IBSE">     0</i>
   <v type="int" name="KPOINT">    -1     0     0     0</v>
   <i type="logical" name="LTCTC"> F  </i>
   <i type="logical" name="LTCTE"> F  </i>
   <i type="logical" name="LTETE"> F  </i>
   <i type="logical" name="LTRIPLET"> F  </i>
   <i type="logical" name="LFXCEPS"> F  </i>
   <i type="logical" name="LFXHEG"> F  </i>
   <i type="int" name="NATURALO">     2</i>
   <i type="logical" name="LHOLEGF"> F  </i>
   <i type="logical" name="L2ORDER"> F  </i>
   <i type="logical" name="LDMP1"> F  </i>
   <i type="logical" name="LMP2LT"> F  </i>
   <i type="logical" name="LSMP2LT"> F  </i>
   <i type="logical" name="LGWLF"> F  </i>
   <i name="ENCUTGW">     -1.60000002</i>
   <i name="ENCUTGWSOFT">     -1.60000002</i>
   <i name="ENCUTLF">     -1.00000000</i>
   <i type="logical" name="LESF_SPLINES"> F  </i>
   <i type="int" name="LMAXMP2">    -1</i>
   <i name="SCISSOR">      0.00000000</i>
   <i type="int" name="NOMEGA">     0</i>
   <i type="int" name="NOMEGAR">     0</i>
   <i type="int" name="NBANDSGW">    -1</i>
   <i type="int" name="NBANDSO">    -1</i>
   <i type="int" name="NBANDSV">    -1</i>
   <i type="int" name="NELMGW">     1</i>
   <i type="int" name="NELMHF">     1</i>
   <i type="int" name="DIM">     3</i>
   <i type="int" name="IESPILON">     4</i>
   <i type="int" name="ANTIRES">     0</i>
   <i name="OMEGAMAX">    -30.00000000</i>
   <i name="OMEGAMIN">    -30.00000000</i>
   <i name="OMEGATL">   -200.00000000</i>
   <i type="int" name="OMEGAGRID">     0</i>
   <i name="CSHIFT">     -0.10000000</i>
   <i type="logical" name="LSELFENERGY"> F  </i>
   <i type="logical" name="LSPECTRAL"> F  </i>
   <i type="logical" name="LSPECTRALGW"> F  </i>
   <i type="logical" name="LSINGLES"> F  </i>
   <i type="logical" name="LFERMIGW"> F  </i>
   <i type="logical" name="ODDONLYGW"> F  </i>
   <i type="logical" name="EVENONLYGW"> F  </i>
   <i type="int" name="NKREDLFX">     1</i>
   <i type="int" name="NKREDLFY">     1</i>
   <i type="int" name="NKREDLFZ">     1</i>
   <i type="int" name="MAXMEM">  2800</i>
   <i type="int" name="TELESCOPE">     0</i>
   <i type="int" name="NTAUPAR">    -1</i>
   <i type="int" name="NOMEGAPAR">    -1</i>
   <i name="DAMP_NEWTON">      0.80000001</i>
   <i name="LAMBDA">      1.00000000</i>
  </separator>
  <separator name="External order field" >
   <i name="OFIELD_KAPPA">      0.00000000</i>
   <v name="OFIELD_K">      0.00000000      0.00000000      0.00000000</v>
   <i name="OFIELD_Q6_NEAR">      0.00000000</i>
   <i name="OFIELD_Q6_FAR">      0.00000000</i>
   <i name="OFIELD_A">      0.00000000</i>
  </separator>
  <separator name="optional k-points parameters" >
   <i type="int" name="KPOINTS_OPT_MODE">     1</i>
   <i type="logical" name="LKPOINTS_OPT"> F  </i>
  </separator>
 </parameters>
 <atominfo>
  <atoms>      28 </atoms>
  <types>       2 </types>
  <array name="atoms" >
   <dimension dim="1">ion</dimension>
   <field type="string">element</field>
   <field type="int">atomtype</field>
   <set>
    <rc><c>C </c><c>   1</c></rc>
    <rc><c>C </c><c>   1</c></rc>
    <rc><c>C </c><c>   1</c></rc>
    <rc><c>C </c><c>   1</c></rc>
    <rc><c>C </c><c>   1</c></rc>
    <rc><c>C </c><c>   1</c></rc>
    <rc><c>C </c><c>   1</c></rc>
    <rc><c>C </c><c>   1</c></rc>
    <rc><c>C </c><c>   1</c></rc>
    <rc><c>C </c><c>   1</c></rc>
    <rc><c>C </c><c>   1</c></rc>
    <rc><c>C </c><c>   1</c></rc>
    <rc><c>C </c><c>   1</c></rc>
    <rc><c>C </c><c>   1</c></rc>
    <rc><c>C </c><c>   1</c></rc>
    <rc><c>C </c><c>   1</c></rc>
    <rc><c>C </c><c>   1</c></rc>
    <rc><c>C </c><c>   1</c></rc>
    <rc><c>C </c><c>   1</c></rc>
    <rc><c>C </c><c>   1</c></rc>
    <rc><c>H </c><c>   2</c></rc>
    <rc><c>H </c><c>   2</c></rc>
    <rc><c>H </c><c>   2</c></rc>
    <rc><c>H </c><c>   2</c></rc>
    <rc><c>H </c><c>   2</c></rc>
    <rc><c>H </c><c>   2</c></rc>
    <rc><c>H </c><c>   2</c></rc>
    <rc><c>H </c><c>   2</c></rc>
   </set>
  </array>
  <array name="atomtypes" >
   <dimension dim="1">type</dimension>
   <field type="int">atomspertype</field>
   <field type="string">element</field>
   <field>mass</field>
   <field>valence</field>
   <field type="string">pseudopotential</field>
   <set>
    <rc><c>  20</c><c>C </c><c>     12.01100000</c><c>      4.00000000</c><c>  PAW_PBE C 08Apr2002                   </c></rc>
    <rc><c>   8</c><c>H </c><c>      1.00000000</c><c>      1.00000000</c><c>  PAW_PBE H 15Jun2001                   </c></rc>
   </set>
  </array>
 </atominfo>
 <structure name="initialpos" >
  <crystal>
   <varray name="basis" >
    <v>       5.05260000       0.00000000       0.00000000 </v>
    <v>       0.00000000       5.05260000       0.00000000 </v>
    <v>       0.00000000       0.00000000      14.57270000 </v>
   </varray>
   <i name="volume">    372.02305936 </i>
   <varray name="rec_basis" >
    <v>       0.19791790       0.00000000       0.00000000 </v>
    <v>       0.00000000       0.19791790       0.00000000 </v>
    <v>       0.00000000       0.00000000       0.06862146 </v>
   </varray>
  </crystal>
  <varray name="positions" >
   <v>       0.00000696       0.99652502       0.19642089 </v>
   <v>       0.25000000       0.25000000       0.06862000 </v>
   <v>       0.25429840       0.36490164       0.29668537 </v>
   <v>       0.25267685       0.99913795       0.13163545 </v>
   <v>       0.00376875       0.27221353       0.24988604 </v>
   <v>       0.00141223       0.50233470       0.17901080 </v>
   <v>       0.25000000       0.75000000       0.06862000 </v>
   <v>       0.25438132       0.63344303       0.29641914 </v>
   <v>       0.25103684       0.49948991       0.12149763 </v>
   <v>       0.00380531       0.73118965       0.24918263 </v>
   <v>       0.50025674       0.00152352       0.19597555 </v>
   <v>       0.75000000       0.25000000       0.06862000 </v>
   <v>       0.75584091       0.36536440       0.29622947 </v>
   <v>       0.75224322       0.00085449       0.13139221 </v>
   <v>       0.50306123       0.27029554       0.25030061 </v>
   <v>       0.50315047       0.49953041       0.17863245 </v>
   <v>       0.75000000       0.75000000       0.06862000 </v>
   <v>       0.75448864       0.63640999       0.29698274 </v>
   <v>       0.75720618       0.50087830       0.12133587 </v>
   <v>       0.50383401       0.72873888       0.25010799 </v>
   <v>       0.39214934       0.25000000       0.01612382 </v>
   <v>       0.10785066       0.25000000       0.01612382 </v>
   <v>       0.39214934       0.75000000       0.01612382 </v>
   <v>       0.10785066       0.75000000       0.01612382 </v>
   <v>       0.89214934       0.25000000       0.01612382 </v>
   <v>       0.60785066       0.25000000       0.01612382 </v>
   <v>       0.89214934       0.75000000       0.01612382 </v>
   <v>       0.60785066       0.75000000       0.01612382 </v>
  </varray>
  <varray name="selective"  type="logical" >
   <v type="logical" >  T  T  T </v>
   <v type="logical" >  F  F  F </v>
   <v type="logical" >  T  T  T </v>
   <v type="logical" >  T  T  T </v>
   <v type="logical" >  T  T  T </v>
   <v type="logical" >  T  T  T </v>
   <v type="logical" >  F  F  F </v>
   <v type="logical" >  T  T  T </v>
   <v type="logical" >  T  T  T </v>
   <v type="logical" >  T  T  T </v>
   <v type="logical" >  T  T  T </v>
   <v type="logical" >  F  F  F </v>
   <v type="logical" >  T  T  T </v>
   <v type="logical" >  T  T  T </v>
   <v type="logical" >  T  T  T </v>
   <v type="logical" >  T  T  T </v>
   <v type="logical" >  F  F  F </v>
   <v type="logical" >  T  T  T </v>
   <v type="logical" >  T  T  T </v>
   <v type="logical" >  T  T  T </v>
   <v type="logical" >  F  F  F </v>
   <v type="logical" >  F  F  F </v>
   <v type="logical" >  F  F  F </v>
   <v type="logical" >  F  F  F </v>
   <v type="logical" >  F  F  F </v>
   <v type="logical" >  F  F  F </v>
   <v type="logical" >  F  F  F </v>
   <v type="logical" >  F  F  F </v>
  </varray>
  <varray name="velocities" >
   <v>       0.00027122      -0.00077193      -0.00066701 </v>
   <v>       0.00000000       0.00000000       0.00000000 </v>
   <v>       0.00033482      -0.00094188      -0.00006304 </v>
   <v>       0.00026154      -0.00056378      -0.00028367 </v>
   <v>      -0.00011850      -0.00064570       0.00013898 </v>
   <v>      -0.00018447       0.00015782      -0.00062105 </v>
   <v>       0.00000000       0.00000000       0.00000000 </v>
   <v>       0.00055276       0.00111630      -0.00017305 </v>
   <v>       0.00024928      -0.00001510      -0.00081409 </v>
   <v>      -0.00079023       0.00011608      -0.00006006 </v>
   <v>      -0.00015809      -0.00017764      -0.00060480 </v>
   <v>       0.00000000       0.00000000       0.00000000 </v>
   <v>      -0.00040142      -0.00156424      -0.00031751 </v>
   <v>      -0.00034673       0.00023658      -0.00010713 </v>
   <v>      -0.00018704      -0.00044405       0.00023893 </v>
   <v>      -0.00034235       0.00015076      -0.00072275 </v>
   <v>       0.00000000       0.00000000       0.00000000 </v>
   <v>      -0.00036359       0.00133364      -0.00002489 </v>
   <v>       0.00037266       0.00037081      -0.00077630 </v>
   <v>      -0.00020046       0.00001922       0.00023176 </v>
   <v>       0.00000000       0.00000000       0.00000000 </v>
   <v>       0.00000000       0.00000000       0.00000000 </v>
   <v>       0.00000000       0.00000000       0.00000000 </v>
   <v>       0.00000000       0.00000000       0.00000000 </v>
   <v>       0.00000000       0.00000000       0.00000000 </v>
   <v>       0.00000000       0.00000000       0.00000000 </v>
   <v>       0.00000000       0.00000000       0.00000000 </v>
   <v>       0.00000000       0.00000000       0.00000000 </v>
  </varray>
  <nose>
   <v>       1.00000000       0.00000000       0.00010000       0.10000000 </v>
  </nose>
 </structure>
 <structure>
  <crystal>
   <varray name="basis" >
    <v>       5.05260000       0.00000000       0.00000000 </v>
    <v>       0.00000000       5.05260000       0.00000000 </v>
    <v>       0.00000000       0.00000000      14.57270000 </v>
   </varray>
   <i name="volume">    372.02305936 </i>
   <varray name="rec_basis" >
    <v>       0.19791790       0.00000000       0.00000000 </v>
    <v>       0.00000000       0.19791790       0.00000000 </v>
    <v>       0.00000000       0.00000000       0.06862146 </v>
   </varray>
  </crystal>
  <varray name="positions" >
   <v>       0.00000696       0.99652502       0.19642089 </v>
   <v>       0.25000000       0.25000000       0.06862000 </v>
   <v>       0.25429840       0.36490164       0.29668537 </v>
   <v>       0.25267685       0.99913795       0.13163545 </v>
   <v>       0.00376875       0.27221353       0.24988604 </v>
   <v>       0.00141223       0.50233470       0.17901080 </v>
   <v>       0.25000000       0.75000000       0.06862000 </v>
   <v>       0.25438132       0.63344303       0.29641914 </v>
   <v>       0.25103684       0.49948991       0.12149763 </v>
   <v>       0.00380531       0.73118965       0.24918263 </v>
   <v>       0.50025674       0.00152352       0.19597555 </v>
   <v>       0.75000000       0.25000000       0.06862000 </v>
   <v>       0.75584091       0.36536440       0.29622947 </v>
   <v>       0.75224322       0.00085449       0.13139221 </v>
   <v>       0.50306123       0.27029554       0.25030061 </v>
   <v>       0.50315047       0.49953041       0.17863245 </v>
   <v>       0.75000000       0.75000000       0.06862000 </v>
   <v>       0.75448864       0.63640999       0.29698274 </v>
   <v>       0.75720618       0.50087830       0.12133587 </v>
   <v>       0.50383401       0.72873888       0.25010799 </v>
   <v>       0.39214934       0.25000000       0.01612382 </v>
   <v>       0.10785066       0.25000000       0.01612382 </v>
   <v>       0.39214934       0.75000000       0.01612382 </v>
   <v>       0.10785066       0.75000000       0.01612382 </v>
   <v>       0.89214934       0.25000000       0.01612382 </v>
   <v>       0.60785066       0.25000000       0.01612382 </v>
   <v>       0.89214934       0.75000000       0.01612382 </v>
   <v>       0.60785066       0.75000000       0.01612382 </v>
  </varray>
 </structure>
 <varray name="forces" >
  <v>       0.47454651       0.99836026      -0.32713236 </v>
  <v>       0.07598899      -1.08002470      -0.09296241 </v>
  <v>      -0.17541916      -0.75978346       0.22918956 </v>
  <v>      -0.42375905       0.11536204      -0.83659708 </v>
  <v>      -0.06899729      -1.03437127       0.41176417 </v>
  <v>       0.59014677      -0.43166774      -0.55505547 </v>
  <v>       0.17793301       0.89724254      -0.11423990 </v>
  <v>      -0.11192875       1.18934084       0.12602634 </v>
  <v>       0.34291405       0.15511324      -0.41053551 </v>
  <v>      -0.13703389       0.14298900       1.08979717 </v>
  <v>       0.39007125      -0.38934589       0.11645902 </v>
  <v>       0.40727606      -0.87100911      -0.12576786 </v>
  <v>      -0.38496242      -0.38286805       0.38525113 </v>
  <v>      -0.30859608      -0.23207293      -0.70115650 </v>
  <v>       0.24797996      -0.49398064       0.23899749 </v>
  <v>       0.12570041       0.04431240      -0.44164533 </v>
  <v>       0.30927984       1.11545923      -0.19234806 </v>
  <v>      -0.04880410       0.39768174       0.02870497 </v>
  <v>      -1.28536773      -0.16612943      -0.47742865 </v>
  <v>      -0.07645920       0.78484729       0.41995590 </v>
  <v>      -0.12133112      -0.28541653       0.13860838 </v>
  <v>       0.09417739      -0.28715137       0.17544836 </v>
  <v>      -0.13688803       0.26779336       0.11906589 </v>
  <v>       0.06514328       0.28991476       0.17732213 </v>
  <v>      -0.12358874      -0.33005223       0.05374497 </v>
  <v>       0.09030502      -0.22798856       0.26607965 </v>
  <v>      -0.10410191       0.34823588       0.04788829 </v>
  <v>       0.11577494       0.22520936       0.25056571 </v>
 </varray>
 <varray name="stress" >
  <v>    -243.76994957      -0.18934144      -4.41943298 </v>
  <v>      -0.18934144     -44.66569756       1.23535725 </v>
  <v>      -4.41943298       1.23535725      13.89045768 </v>
 </varray>
 <energy>
  <i name="e_fr_energy">   -198.18104990 </i>
  <i name="e_wo_entrp">   -198.18104990 </i>
  <i name="e_0_energy">   -198.18104990 </i>
  <i name="kinetic">      0.28457160 </i>
  <i name="lattice kinetic">      0.00000000 </i>
  <i name="nosepot">      0.00000453 </i>
  <i name="nosekinetic">      0.39648515 </i>
  <i name="total">   -197.49998862 </i>
 </energy>
 <time name="totalsc">    0.13    0.13</time>
 <structure>
  <crystal>
   <varray name="basis" >
    <v>       5.05260000       0.00000000       0.00000000 </v>
    <v>       0.00000000       5.05260000       0.00000000 </v>
    <v>       0.00000000       0.00000000      14.57270000 </v>
   </varray>
   <i name="volume">    372.02305936 </i>
   <varray name="rec_basis" >
    <v>       0.19791790       0.00000000       0.00000000 </v>
    <v>       0.00000000       0.19791790       0.00000000 </v>
    <v>       0.00000000       0.00000000       0.06862146 </v>
   </varray>
  </crystal>
  <varray name="positions" >
   <v>       0.00043881       0.99612543       0.19573093 </v>
   <v>       0.25000000       0.25000000       0.06862000 </v>
   <v>       0.25456269       0.36371559       0.29665201 </v>
   <v>       0.25278204       0.99862936       0.13125662 </v>
   <v>       0.00362892       0.27121910       0.25007188 </v>
   <v>       0.00144090       0.50233604       0.17833771 </v>
   <v>       0.25000000       0.75000000       0.06862000 </v>
   <v>       0.25488039       0.63495072       0.29626595 </v>
   <v>       0.25140083       0.49952997       0.12065414 </v>
   <v>       0.00298695       0.73135325       0.24925755 </v>
   <v>       0.50024045       0.00121294       0.19540052 </v>
   <v>       0.75000000       0.25000000       0.06862000 </v>
   <v>       0.75531384       0.36370505       0.29596727 </v>
   <v>       0.75179640       0.00100305       0.13120198 </v>
   <v>       0.50296656       0.26968843       0.25056268 </v>
   <v>       0.50286128       0.49969295       0.17787415 </v>
   <v>       0.75000000       0.75000000       0.06862000 </v>
   <v>       0.75411714       0.63784988       0.29696201 </v>
   <v>       0.75711537       0.50118094       0.12052102 </v>
   <v>       0.50361169       0.72903476       0.25038523 </v>
   <v>       0.39214934       0.25000000       0.01612382 </v>
   <v>       0.10785066       0.25000000       0.01612382 </v>
   <v>       0.39214934       0.75000000       0.01612382 </v>
   <v>       0.10785066       0.75000000       0.01612382 </v>
   <v>       0.89214934       0.25000000       0.01612382 </v>
   <v>       0.60785066       0.25000000       0.01612382 </v>
   <v>       0.89214934       0.75000000       0.01612382 </v>
   <v>       0.60785066       0.75000000       0.01612382 </v>
  </varray>
 </structure>
 <varray name="forces" >
  <v>       0.35927473       1.01659376       0.01129297 </v>
  <v>       0.09263348      -1.20027058      -0.32563677 </v>
  <v>      -0.25691616      -0.13986176       0.21428049 </v>
  <v>      -0.42972631       0.20692657      -0.74392294 </v>
  <v>      -0.00842152      -0.90357777       0.09282776 </v>
  <v>       0.58317289      -0.47316906      -0.16809290 </v>
  <v>       0.19408692       0.96603570      -0.37494532 </v>
  <v>      -0.31714082       0.51369241       0.15941235 </v>
  <v>       0.23245640       0.13492729       0.05368321 </v>
  <v>       0.07857042       0.10432693       0.80178211 </v>
  <v>       0.37167492      -0.33785980       0.41830251 </v>
  <v>       0.37861745      -0.92490509      -0.33558640 </v>
  <v>      -0.31273061       0.28951446       0.45189898 </v>
  <v>      -0.22201367      -0.27687827      -0.66885702 </v>
  <v>       0.21506580      -0.47075069      -0.15338390 </v>
  <v>       0.20562916       0.00267975      -0.03388055 </v>
  <v>       0.27945854       1.24729928      -0.43728125 </v>
  <v>      -0.03934649      -0.29216089       0.02709697 </v>
  <v>      -1.25291443      -0.24776532      -0.00937361 </v>
  <v>      -0.02701762       0.78957118       0.02662557 </v>
  <v>      -0.12622167      -0.30534841       0.10449641 </v>
  <v>       0.10095194      -0.30266104       0.15768196 </v>
  <v>      -0.13845944       0.28545061       0.07811462 </v>
  <v>       0.06954881       0.29970900       0.14973767 </v>
  <v>      -0.13107011      -0.35201278       0.03645027 </v>
  <v>       0.09438830      -0.24363606       0.23220666 </v>
  <v>      -0.11318895       0.36997215       0.02667293 </v>
  <v>       0.11963803       0.24415842       0.20839723 </v>
 </varray>
 <varray name="stress" >
  <v>    -243.57483764      -0.00382224      -4.51572148 </v>
  <v>      -0.00382224     -51.41262204       1.36185536 </v>
  <v>      -4.51572148       1.36185536      14.22717341 </v>
 </varray>
 <energy>
  <i name="e_fr_energy">   -198.21626711 </i>
  <i name="e_wo_entrp">   -198.21626711 </i>
  <i name="e_0_energy">   -198.21626711 </i>
  <i name="kinetic">      0.30354899 </i>
  <i name="lattice kinetic">      0.00000000 </i>
  <i name="nosepot">      0.00000810 </i>
  <i name="nosekinetic">      0.41251206 </i>
  <i name="total">   -197.50019796 </i>
 </energy>
 <time name="totalsc">    0.06    0.06</time>
 <structure>
  <crystal>
   <varray name="basis" >
    <v>       5.05260000       0.00000000       0.00000000 </v>
    <v>       0.00000000       5.05260000       0.00000000 </v>
    <v>       0.00000000       0.00000000      14.57270000 </v>
   </varray>
   <i name="volume">    372.02305936 </i>
   <varray name="rec_basis" >
    <v>       0.19791790       0.00000000       0.00000000 </v>
    <v>       0.00000000       0.19791790       0.00000000 </v>
    <v>       0.00000000       0.00000000       0.06862146 </v>
   </varray>
  </crystal>
  <varray name="positions" >
   <v>       0.00098621       0.99609520       0.19506038 </v>
   <v>       0.25000000       0.25000000       0.06862000 </v>
   <v>       0.25472936       0.36251117       0.29664575 </v>
   <v>       0.25273277       0.99820712       0.13079663 </v>
   <v>       0.00348977       0.26993167       0.25026422 </v>
   <v>       0.00167470       0.50217028       0.17766163 </v>
   <v>       0.25000000       0.75000000       0.06862000 </v>
   <v>       0.25525444       0.63660035       0.29613628 </v>
   <v>       0.25183737       0.49961662       0.11983927 </v>
   <v>       0.00221771       0.73154941       0.24942865 </v>
   <v>       0.50035581       0.00079120       0.19489172 </v>
   <v>       0.75000000       0.25000000       0.06862000 </v>
   <v>       0.75469013       0.36219130       0.29576723 </v>
   <v>       0.75128288       0.00104998       0.13093484 </v>
   <v>       0.50295030       0.26893099       0.25079912 </v>
   <v>       0.50265225       0.49985220       0.17713153 </v>
   <v>       0.75000000       0.75000000       0.06862000 </v>
   <v>       0.75374146       0.63914898       0.29694513 </v>
   <v>       0.75658459       0.50138820       0.11972632 </v>
   <v>       0.50338564       0.72960167       0.25065848 </v>
   <v>       0.39214934       0.25000000       0.01612382 </v>
   <v>       0.10785066       0.25000000       0.01612382 </v>
   <v>       0.39214934       0.75000000       0.01612382 </v>
   <v>       0.10785066       0.75000000       0.01612382 </v>
   <v>       0.89214934       0.25000000       0.01612382 </v>
   <v>       0.60785066       0.25000000       0.01612382 </v>
   <v>       0.89214934       0.75000000       0.01612382 </v>
   <v>       0.60785066       0.75000000       0.01612382 </v>
  </varray>
 </structure>
 <varray name="forces" >
  <v>       0.21458941       0.93895389       0.33755518 </v>
  <v>       0.11058394      -1.30940988      -0.56485925 </v>
  <v>      -0.31084298       0.44232178       0.18108688 </v>
  <v>      -0.39525839       0.29415519      -0.59054921 </v>
  <v>       0.04669083      -0.70198742      -0.19812179 </v>
  <v>       0.49482364      -0.47275110       0.21301811 </v>
  <v>       0.20264551       1.03927939      -0.64400496 </v>
  <v>      -0.49960734      -0.16430773       0.20462539 </v>
  <v>       0.11180169       0.09841583       0.50119722 </v>
  <v>       0.28752436       0.08021156       0.45575578 </v>
  <v>       0.32645281      -0.25940708       0.65966437 </v>
  <v>       0.32731715      -0.99205354      -0.55330434 </v>
  <v>      -0.21179510       0.83788140       0.49025133 </v>
  <v>      -0.11165175      -0.29458956      -0.59116227 </v>
  <v>       0.14724989      -0.41639423      -0.49475261 </v>
  <v>       0.25230529      -0.02815225       0.37604729 </v>
  <v>       0.23547340       1.36831760      -0.68369373 </v>
  <v>      -0.03252389      -0.87550206       0.03000359 </v>
  <v>      -1.09803785      -0.31362064       0.46646395 </v>
  <v>       0.02337715       0.73752250      -0.35030053 </v>
  <v>      -0.13029159      -0.32470636       0.06995406 </v>
  <v>       0.10852921      -0.31455912       0.13997728 </v>
  <v>      -0.13773776       0.30414532       0.03763286 </v>
  <v>       0.07720735       0.30588284       0.12124863 </v>
  <v>      -0.13675290      -0.36934196       0.02445434 </v>
  <v>       0.09860291      -0.26167150       0.19121316 </v>
  <v>      -0.12217349       0.38574160       0.01066519 </v>
  <v>       0.12149849       0.26562554       0.15993405 </v>
 </varray>
 <varray name="stress" >
  <v>    -243.62567061       0.21139634      -4.66999866 </v>
  <v>       0.21139634     -57.88846158       1.25923928 </v>
  <v>      -4.66999866       1.25923928      14.11457573 </v>
 </varray>
 <energy>
  <i name="e_fr_energy">   -198.21348576 </i>
  <i name="e_wo_entrp">   -198.21348576 </i>
  <i name="e_0_energy">   -198.21348576 </i>
  <i name="kinetic">      0.28534909 </i>
  <i name="lattice kinetic">      0.00000000 </i>
  <i name="nosepot">      0.00001175 </i>
  <i name="nosekinetic">      0.42884812 </i>
  <i name="total">   -197.49927681 </i>
 </energy>
 <time name="totalsc">    0.06    0.06</time>
 <structure>
  <crystal>
   <varray name="basis" >
    <v>       5.05260000       0.00000000       0.00000000 </v>
    <v>       0.00000000       5.05260000       0.00000000 </v>
    <v>       0.00000000       0.00000000      14.57270000 </v>
   </varray>
   <i name="volume">    372.02305936 </i>
   <varray name="rec_basis" >
    <v>       0.19791790       0.00000000       0.00000000 </v>
    <v>       0.00000000       0.19791790       0.00000000 </v>
    <v>       0.00000000       0.00000000       0.06862146 </v>
   </varray>
  </crystal>
  <varray name="positions" >
   <v>       0.00159476       0.99639719       0.19444901 </v>
   <v>       0.25000000       0.25000000       0.06862000 </v>
   <v>       0.25478187       0.36149497       0.29666182 </v>
   <v>       0.25254530       0.99789995       0.13027663 </v>
   <v>       0.00337081       0.26843076       0.25042718 </v>
   <v>       0.00207693       0.50184209       0.17702964 </v>
   <v>       0.25000000       0.75000000       0.06862000 </v>
   <v>       0.25544218       0.63814804       0.29603511 </v>
   <v>       0.25230174       0.49973570       0.11910745 </v>
   <v>       0.00157046       0.73176865       0.24965097 </v>
   <v>       0.50058332       0.00028914       0.19447721 </v>
   <v>       0.75000000       0.25000000       0.06862000 </v>
   <v>       0.75400829       0.36101362       0.29563252 </v>
   <v>       0.75074364       0.00099167       0.13060248 </v>
   <v>       0.50298644       0.26804677       0.25096871 </v>
   <v>       0.50253784       0.49999726       0.17645472 </v>
   <v>       0.75000000       0.75000000       0.06862000 </v>
   <v>       0.75336431       0.64010445       0.29693238 </v>
   <v>       0.75568040       0.50147923       0.11900989 </v>
   <v>       0.50317387       0.73041379       0.25088159 </v>
   <v>       0.39214934       0.25000000       0.01612382 </v>
   <v>       0.10785066       0.25000000       0.01612382 </v>
   <v>       0.39214934       0.75000000       0.01612382 </v>
   <v>       0.10785066       0.75000000       0.01612382 </v>
   <v>       0.89214934       0.25000000       0.01612382 </v>
   <v>       0.60785066       0.25000000       0.01612382 </v>
   <v>       0.89214934       0.75000000       0.01612382 </v>
   <v>       0.60785066       0.75000000       0.01612382 </v>
  </varray>
 </structure>
 <varray name="forces" >
  <v>       0.05544469       0.78291070       0.62507530 </v>
  <v>       0.12835260      -1.39875648      -0.79653828 </v>
  <v>      -0.33265399       0.88854525       0.12439209 </v>
  <v>      -0.32639603       0.36894019      -0.38434944 </v>
  <v>       0.08654916      -0.43480421      -0.42595921 </v>
  <v>       0.34240053      -0.43349433       0.55477565 </v>
  <v>       0.20307303       1.10975307      -0.90427800 </v>
  <v>      -0.63292076      -0.73921906       0.24576851 </v>
  <v>      -0.00684357       0.04968393       0.89977928 </v>
  <v>       0.46240053       0.05943485       0.09933626 </v>
  <v>       0.25899110      -0.16040057       0.82393836 </v>
  <v>       0.25905408      -1.06778591      -0.76512960 </v>
  <v>      -0.08976888       1.19740259       0.48690835 </v>
  <v>       0.01243996      -0.28501247      -0.47034532 </v>
  <v>       0.05453300      -0.31726501      -0.74912737 </v>
  <v>       0.26056092      -0.04976357       0.75355040 </v>
  <v>       0.18229725       1.46549221      -0.91405180 </v>
  <v>      -0.02434123      -1.28518078       0.02564037 </v>
  <v>      -0.84700346      -0.35464807       0.90629094 </v>
  <v>       0.06433211       0.61752736      -0.66445946 </v>
  <v>      -0.13291053      -0.34200677       0.03705338 </v>
  <v>       0.11619770      -0.32198598       0.12282837 </v>
  <v>      -0.13479410       0.32194141       0.00057659 </v>
  <v>       0.08716283       0.30796622       0.09406333 </v>
  <v>      -0.14020838      -0.38076685       0.01782960 </v>
  <v>       0.10270727      -0.28040329       0.14631395 </v>
  <v>      -0.13007734       0.39437488       0.00083055 </v>
  <v>       0.12142150       0.28752068       0.10928722 </v>
 </varray>
 <varray name="stress" >
  <v>    -243.90225503       0.42901809      -4.79524390 </v>
  <v>       0.42901809     -63.09505073       0.98603466 </v>
  <v>      -4.79524390       0.98603466      13.66389106 </v>
 </varray>
 <energy>
  <i name="e_fr_energy">   -198.18061911 </i>
  <i name="e_wo_entrp">   -198.18061911 </i>
  <i name="e_0_energy">   -198.18061911 </i>
  <i name="kinetic">      0.23921911 </i>
  <i name="lattice kinetic">      0.00000000 </i>
  <i name="nosepot">      0.00001547 </i>
  <i name="nosekinetic">      0.44355582 </i>
  <i name="total">   -197.49782871 </i>
 </energy>
 <time name="totalsc">    0.06    0.06</time>
 <structure>
  <crystal>
   <varray name="basis" >
    <v>       5.05260000       0.00000000       0.00000000 </v>
    <v>       0.00000000       5.05260000       0.00000000 </v>
    <v>       0.00000000       0.00000000      14.57270000 </v>
   </varray>
   <i name="volume">    372.02305936 </i>
   <varray name="rec_basis" >
    <v>       0.19791790       0.00000000       0.00000000 </v>
    <v>       0.00000000       0.19791790       0.00000000 </v>
    <v>       0.00000000       0.00000000       0.06862146 </v>
   </varray>
  </crystal>
  <varray name="positions" >
   <v>       0.00220640       0.99696727       0.19393069 </v>
   <v>       0.25000000       0.25000000       0.06862000 </v>
   <v>       0.25471558       0.36081984       0.29669268 </v>
   <v>       0.25224773       0.99773130       0.12972370 </v>
   <v>       0.00328561       0.26681709       0.25053362 </v>
   <v>       0.00258909       0.50136981       0.17648265 </v>
   <v>       0.25000000       0.75000000       0.06862000 </v>
   <v>       0.25540150       0.63939293       0.29596675 </v>
   <v>       0.25275111       0.49986908       0.11850555 </v>
   <v>       0.00110392       0.73200293       0.24987942 </v>
   <v>       0.50089606       0.99974408       0.19417474 </v>
   <v>       0.75000000       0.25000000       0.06862000 </v>
   <v>       0.75331324       0.36029038       0.29556104 </v>
   <v>       0.75022339       0.00083437       0.13022158 </v>
   <v>       0.50304084       0.26707454       0.25104205 </v>
   <v>       0.50251848       0.50012083       0.17588844 </v>
   <v>       0.75000000       0.75000000       0.06862000 </v>
   <v>       0.75298879       0.64058052       0.29692311 </v>
   <v>       0.75450181       0.50144266       0.11842374 </v>
   <v>       0.50299053       0.73142181       0.25101735 </v>
   <v>       0.39214934       0.25000000       0.01612382 </v>
   <v>       0.10785066       0.25000000       0.01612382 </v>
   <v>       0.39214934       0.75000000       0.01612382 </v>
   <v>       0.10785066       0.75000000       0.01612382 </v>
   <v>       0.89214934       0.25000000       0.01612382 </v>
   <v>       0.60785066       0.25000000       0.01612382 </v>
   <v>       0.89214934       0.75000000       0.01612382 </v>
   <v>       0.60785066       0.75000000       0.01612382 </v>
  </varray>
 </structure>
 <varray name="forces" >
  <v>      -0.10028399       0.56954452       0.85186231 </v>
  <v>       0.14466263      -1.46120442      -1.00769262 </v>
  <v>      -0.32219094       1.14711316       0.04360398 </v>
  <v>      -0.23339103       0.42224671      -0.14009636 </v>
  <v>       0.10451114      -0.11197075      -0.56825820 </v>
  <v>       0.15109776      -0.36242836       0.83532792 </v>
  <v>       0.19599993       1.17067828      -1.13885841 </v>
  <v>      -0.69432401      -1.14652504       0.26653362 </v>
  <v>      -0.11409945      -0.00469791       1.22175879 </v>
  <v>       0.57791593       0.02861622      -0.22216469 </v>
  <v>       0.17676895      -0.04759422       0.90430694 </v>
  <v>       0.18083073      -1.14626090      -0.95796806 </v>
  <v>       0.03956011       1.34421123       0.43570613 </v>
  <v>       0.13759032      -0.25004795      -0.31296074 </v>
  <v>      -0.04764796      -0.16466612      -0.89418881 </v>
  <v>       0.22884828      -0.06480131       1.07296742 </v>
  <v>       0.12537287       1.52700444      -1.11261205 </v>
  <v>      -0.01098581      -1.49071708       0.00317183 </v>
  <v>      -0.53277322      -0.36373252       1.26833477 </v>
  <v>       0.08624310       0.42282422      -0.87861146 </v>
  <v>      -0.13388929      -0.35520787       0.00792750 </v>
  <v>       0.12320927      -0.32422374       0.10666521 </v>
  <v>      -0.12992689       0.33680918      -0.03045751 </v>
  <v>       0.09828186       0.30561819       0.07028492 </v>
  <v>      -0.14137092      -0.38511770       0.01623594 </v>
  <v>       0.10647978      -0.29783834       0.10090060 </v>
  <v>      -0.13620200       0.39500099      -0.00255653 </v>
  <v>       0.11971283       0.30736707       0.06083756 </v>
 </varray>
 <varray name="stress" >
  <v>    -244.34108284       0.62105029      -4.81247186 </v>
  <v>       0.62105029     -66.50511974       0.62202025 </v>
  <v>      -4.81247186       0.62202025      13.02701397 </v>
 </varray>
 <energy>
  <i name="e_fr_energy">   -198.13566355 </i>
  <i name="e_wo_entrp">   -198.13566355 </i>
  <i name="e_0_energy">   -198.13566355 </i>
  <i name="kinetic">      0.18364493 </i>
  <i name="lattice kinetic">      0.00000000 </i>
  <i name="nosepot">      0.00001927 </i>
  <i name="nosekinetic">      0.45545696 </i>
  <i name="total">   -197.49654240 </i>
 </energy>
 <time name="totalsc">    0.06    0.06</time>
 <structure>
  <crystal>
   <varray name="basis" >
    <v>       5.05260000       0.00000000       0.00000000 </v>
    <v>       0.00000000       5.05260000       0.00000000 </v>
    <v>       0.00000000       0.00000000      14.57270000 </v>
   </varray>
   <i name="volume">    372.02305936 </i>
   <varray name="rec_basis" >
    <v>       0.19791790       0.00000000       0.00000000 </v>
    <v>       0.00000000       0.19791790       0.00000000 </v>
    <v>       0.00000000       0.00000000       0.06862146 </v>
   </varray>
  </crystal>
  <varray name="positions" >
   <v>       0.00276586       0.99772264       0.19353080 </v>
   <v>       0.25000000       0.25000000       0.06862000 </v>
   <v>       0.25453743       0.36056797       0.29672802 </v>
   <v>       0.25187599       0.99771626       0.12916880 </v>
   <v>       0.00323963       0.26520821       0.25056763 </v>
   <v>       0.00314050       0.50078263       0.17605286 </v>
   <v>       0.25000000       0.75000000       0.06862000 </v>
   <v>       0.25511696       0.64019914       0.29593286 </v>
   <v>       0.25314790       0.49999715       0.11806962 </v>
   <v>       0.00085408       0.73224087       0.25007442 </v>
   <v>       0.50126258       0.99919719       0.19399119 </v>
   <v>       0.75000000       0.25000000       0.06862000 </v>
   <v>       0.75265123       0.36006126       0.29554481 </v>
   <v>       0.74976597       0.00059317       0.12981285 </v>
   <v>       0.50307694       0.26607091       0.25100400 </v>
   <v>       0.50258039       0.50021815       0.17546896 </v>
   <v>       0.75000000       0.75000000       0.06862000 </v>
   <v>       0.75261971       0.64051757       0.29691448 </v>
   <v>       0.75316761       0.50127875       0.11800884 </v>
   <v>       0.50284266       0.73255135       0.25104191 </v>
   <v>       0.39214934       0.25000000       0.01612382 </v>
   <v>       0.10785066       0.25000000       0.01612382 </v>
   <v>       0.39214934       0.75000000       0.01612382 </v>
   <v>       0.10785066       0.75000000       0.01612382 </v>
   <v>       0.89214934       0.25000000       0.01612382 </v>
   <v>       0.60785066       0.25000000       0.01612382 </v>
   <v>       0.89214934       0.75000000       0.01612382 </v>
   <v>       0.60785066       0.75000000       0.01612382 </v>
  </varray>
 </structure>
 <varray name="forces" >
  <v>      -0.23531833       0.32111862       1.00265055 </v>
  <v>       0.15849439      -1.49205354      -1.18707176 </v>
  <v>      -0.28394172       1.20626153      -0.05563469 </v>
  <v>      -0.12877667       0.44549663       0.12251809 </v>
  <v>       0.09856871       0.24899396      -0.61825221 </v>
  <v>      -0.05187209      -0.26853522       1.04328538 </v>
  <v>       0.18299668       1.21655343      -1.33233710 </v>
  <v>      -0.67166754      -1.35834591       0.25566954 </v>
  <v>      -0.20394569      -0.05678258       1.44647970 </v>
  <v>       0.61669671      -0.02301445      -0.47366084 </v>
  <v>       0.08847342       0.07185094       0.90193459 </v>
  <v>       0.10001640      -1.22105547      -1.12030226 </v>
  <v>       0.15933820       1.28281974       0.34055915 </v>
  <v>       0.25070734      -0.19339820      -0.12937880 </v>
  <v>      -0.14170927       0.04058534      -0.92354835 </v>
  <v>       0.15994654      -0.07571851       1.31714538 </v>
  <v>       0.06985241       1.54455216      -1.26686835 </v>
  <v>       0.01030367      -1.48627190      -0.04298914 </v>
  <v>      -0.18945310      -0.33763467       1.51995673 </v>
  <v>       0.08375910       0.15573021      -0.97116445 </v>
  <v>      -0.13321524      -0.36258567      -0.01566205 </v>
  <v>       0.12892391      -0.32077086       0.09208390 </v>
  <v>      -0.12361125       0.34696269      -0.05340770 </v>
  <v>       0.10942044       0.29875481       0.05168950 </v>
  <v>      -0.14037887      -0.38177199       0.01896374 </v>
  <v>       0.10981738      -0.31173459       0.05846434 </v>
  <v>      -0.14019374       0.38723940       0.00017169 </v>
  <v>       0.11676823       0.32275411       0.01870543 </v>
 </varray>
 <varray name="stress" >
  <v>    -244.82339815       0.75556807      -4.67842537 </v>
  <v>       0.75556807     -67.97048907       0.25536863 </v>
  <v>      -4.67842537       0.25536863      12.37067916 </v>
 </varray>
 <energy>
  <i name="e_fr_energy">   -198.09666800 </i>
  <i name="e_wo_entrp">   -198.09666800 </i>
  <i name="e_0_energy">   -198.09666800 </i>
  <i name="kinetic">      0.13635009 </i>
  <i name="lattice kinetic">      0.00000000 </i>
  <i name="nosepot">      0.00002314 </i>
  <i name="nosekinetic">      0.46445548 </i>
  <i name="total">   -197.49583929 </i>
 </energy>
 <time name="totalsc">    0.06    0.06</time>
 <structure>
  <crystal>
   <varray name="basis" >
    <v>       5.05260000       0.00000000       0.00000000 </v>
    <v>       0.00000000       5.05260000       0.00000000 </v>
    <v>       0.00000000       0.00000000      14.57270000 </v>
   </varray>
   <i name="volume">    372.02305936 </i>
   <varray name="rec_basis" >
    <v>       0.19791790       0.00000000       0.00000000 </v>
    <v>       0.00000000       0.19791790       0.00000000 </v>
    <v>       0.00000000       0.00000000       0.06862146 </v>
   </varray>
  </crystal>
  <varray name="positions" >
   <v>       0.00322680       0.99857036       0.19326462 </v>
   <v>       0.25000000       0.25000000       0.06862000 </v>
   <v>       0.25426406       0.36074861       0.29675557 </v>
   <v>       0.25146912       0.99785878       0.12864427 </v>
   <v>       0.00322969       0.26373176       0.25052507 </v>
   <v>       0.00365832       0.50011699       0.17576259 </v>
   <v>       0.25000000       0.75000000       0.06862000 </v>
   <v>       0.25460337       0.64050383       0.29593119 </v>
   <v>       0.25346174       0.50010164       0.11782269 </v>
   <v>       0.00082872       0.73246410       0.25020608 </v>
   <v>       0.50165015       0.99869080       0.19392304 </v>
   <v>       0.75000000       0.25000000       0.06862000 </v>
   <v>       0.75206378       0.36029103       0.29557069 </v>
   <v>       0.74940967       0.00029043       0.12939963 </v>
   <v>       0.50306205       0.26510941       0.25085404 </v>
   <v>       0.50269701       0.50028605       0.17522220 </v>
   <v>       0.75000000       0.75000000       0.06862000 </v>
   <v>       0.75226448       0.63993206       0.29690084 </v>
   <v>       0.75180355       0.50100029       0.11779135 </v>
   <v>       0.50272843       0.73370451       0.25094700 </v>
   <v>       0.39214934       0.25000000       0.01612382 </v>
   <v>       0.10785066       0.25000000       0.01612382 </v>
   <v>       0.39214934       0.75000000       0.01612382 </v>
   <v>       0.10785066       0.75000000       0.01612382 </v>
   <v>       0.89214934       0.25000000       0.01612382 </v>
   <v>       0.60785066       0.25000000       0.01612382 </v>
   <v>       0.89214934       0.75000000       0.01612382 </v>
   <v>       0.60785066       0.75000000       0.01612382 </v>
  </varray>
 </structure>
 <varray name="forces" >
  <v>      -0.33576236       0.06062263       1.06966384 </v>
  <v>       0.16907975      -1.48949145      -1.32557754 </v>
  <v>      -0.22616295       1.08086397      -0.16156786 </v>
  <v>      -0.02497955       0.43226730       0.38161055 </v>
  <v>       0.07107527       0.62108062      -0.58387666 </v>
  <v>      -0.24203036      -0.16101677       1.17448404 </v>
  <v>       0.16616061       1.24376996      -1.47208309 </v>
  <v>      -0.56745248      -1.37303368       0.21095232 </v>
  <v>      -0.27351363      -0.09879582       1.56195945 </v>
  <v>       0.57347056      -0.09955202      -0.63494700 </v>
  <v>       0.00246959       0.19025242       0.82411725 </v>
  <v>       0.02353422      -1.28584014      -1.24291896 </v>
  <v>       0.25420101       1.03632982       0.21527873 </v>
  <v>       0.34055166      -0.12032830       0.06726886 </v>
  <v>      -0.21204754       0.28544000      -0.84598843 </v>
  <v>       0.06139326      -0.08404364       1.47501442 </v>
  <v>       0.02011416       1.51515851      -1.36845596 </v>
  <v>       0.04021820      -1.28283247      -0.11032461 </v>
  <v>       0.15125578      -0.27815601       1.64255564 </v>
  <v>       0.05791677      -0.16826525      -0.93925257 </v>
  <v>      -0.13107461      -0.36298212      -0.03230686 </v>
  <v>       0.13267093      -0.31189309       0.07963009 </v>
  <v>      -0.11667376       0.35072301      -0.06654856 </v>
  <v>       0.11954169       0.28766643       0.03953760 </v>
  <v>      -0.13748477      -0.37087797       0.02506986 </v>
  <v>       0.11256479      -0.32024600       0.02217592 </v>
  <v>      -0.14200171       0.37139845       0.00821389 </v>
  <v>       0.11296546       0.33178162      -0.01368435 </v>
 </varray>
 <varray name="stress" >
  <v>    -245.18561742       0.80756210      -4.38581395 </v>
  <v>       0.80756210     -67.58514549      -0.02340998 </v>
  <v>      -4.38581395      -0.02340998      11.85292887 </v>
 </varray>
 <energy>
  <i name="e_fr_energy">   -198.07459067 </i>
  <i name="e_wo_entrp">   -198.07459067 </i>
  <i name="e_0_energy">   -198.07459067 </i>
  <i name="kinetic">      0.10747787 </i>
  <i name="lattice kinetic">      0.00000000 </i>
  <i name="nosepot">      0.00002710 </i>
  <i name="nosekinetic">      0.47131948 </i>
  <i name="total">   -197.49576621 </i>
 </energy>
 <time name="totalsc">    0.06    0.06</time>
 <structure>
  <crystal>
   <varray name="basis" >
    <v>       5.05260000       0.00000000       0.00000000 </v>
    <v>       0.00000000       5.05260000       0.00000000 </v>
    <v>       0.00000000       0.00000000      14.57270000 </v>
   </varray>
   <i name="volume">    372.02305936 </i>
   <varray name="rec_basis" >
    <v>       0.19791790       0.00000000       0.00000000 </v>
    <v>       0.00000000       0.19791790       0.00000000 </v>
    <v>       0.00000000       0.00000000       0.06862146 </v>
   </varray>
  </crystal>
  <varray name="positions" >
   <v>       0.00355644       0.99941579       0.19313670 </v>
   <v>       0.25000000       0.25000000       0.06862000 </v>
   <v>       0.25391854       0.36130547       0.29676260 </v>
   <v>       0.25106480       0.99814981       0.12818105 </v>
   <v>       0.00324510       0.26251560       0.25041229 </v>
   <v>       0.00407632       0.49941314       0.17562405 </v>
   <v>       0.25000000       0.75000000       0.06862000 </v>
   <v>       0.25390395       0.64031569       0.29595537 </v>
   <v>       0.25367034       0.50016835       0.11777369 </v>
   <v>       0.00100635       0.73264598       0.25025641 </v>
   <v>       0.50202777       0.99826566       0.19395759 </v>
   <v>       0.75000000       0.25000000       0.06862000 </v>
   <v>       0.75158240       0.36087992       0.29562218 </v>
   <v>       0.74918345       0.99995370       0.12900616 </v>
   <v>       0.50297278       0.26427544       0.25060481 </v>
   <v>       0.50283203       0.50032242       0.17516273 </v>
   <v>       0.75000000       0.75000000       0.06862000 </v>
   <v>       0.75193337       0.63891040       0.29687408 </v>
   <v>       0.75053092       0.50063148       0.11778081 </v>
   <v>       0.50263782       0.73476613       0.25073987 </v>
   <v>       0.39214934       0.25000000       0.01612382 </v>
   <v>       0.10785066       0.25000000       0.01612382 </v>
   <v>       0.39214934       0.75000000       0.01612382 </v>
   <v>       0.10785066       0.75000000       0.01612382 </v>
   <v>       0.89214934       0.25000000       0.01612382 </v>
   <v>       0.60785066       0.25000000       0.01612382 </v>
   <v>       0.89214934       0.75000000       0.01612382 </v>
   <v>       0.60785066       0.75000000       0.01612382 </v>
  </varray>
 </structure>
 <varray name="forces" >
  <v>      -0.39421188      -0.18986606       1.05356196 </v>
  <v>       0.17586190      -1.45474924      -1.41660266 </v>
  <v>      -0.15902592       0.80192474      -0.25846187 </v>
  <v>       0.06780736       0.37994145       0.61596570 </v>
  <v>       0.02725554       0.96822374      -0.48363902 </v>
  <v>      -0.40025834      -0.04809446       1.22860859 </v>
  <v>       0.14764664       1.25089767      -1.54946093 </v>
  <v>      -0.39851886      -1.20735748       0.13994563 </v>
  <v>      -0.32236157      -0.12473131       1.56543035 </v>
  <v>       0.45623265      -0.19613413      -0.70100604 </v>
  <v>      -0.07487208       0.29838133       0.68253817 </v>
  <v>      -0.04267291      -1.33506207      -1.31946121 </v>
  <v>       0.31425558       0.64326025       0.08047687 </v>
  <v>       0.39942890      -0.03738959       0.26250527 </v>
  <v>      -0.24847019       0.54445484      -0.68193212 </v>
  <v>      -0.05462730      -0.09018673       1.53889125 </v>
  <v>      -0.02040728       1.44189846      -1.41348662 </v>
  <v>       0.07687830      -0.90793571      -0.18829307 </v>
  <v>       0.46133239      -0.19210988       1.63309231 </v>
  <v>       0.01576591      -0.51875081      -0.79746466 </v>
  <v>      -0.12780597      -0.35603837      -0.04101300 </v>
  <v>       0.13407989      -0.29815625       0.07008014 </v>
  <v>      -0.10955281       0.34805967      -0.06947525 </v>
  <v>       0.12777275       0.27307885       0.03443843 </v>
  <v>      -0.13299053      -0.35341991       0.03347156 </v>
  <v>       0.11458842      -0.32211812      -0.00523837 </v>
  <v>      -0.14176641       0.34859834       0.02042812 </v>
  <v>       0.10863583       0.33338079      -0.03389955 </v>
 </varray>
 <varray name="stress" >
  <v>    -245.25188083       0.77192577      -3.96792369 </v>
  <v>       0.77192577     -65.58054142      -0.15982151 </v>
  <v>      -3.96792369      -0.15982151      11.61171570 </v>
 </varray>
 <energy>
  <i name="e_fr_energy">   -198.07138939 </i>
  <i name="e_wo_entrp">   -198.07138939 </i>
  <i name="e_0_energy">   -198.07138939 </i>
  <i name="kinetic">      0.09810629 </i>
  <i name="lattice kinetic">      0.00000000 </i>
  <i name="nosepot">      0.00003114 </i>
  <i name="nosekinetic">      0.47716927 </i>
  <i name="total">   -197.49608269 </i>
 </energy>
 <time name="totalsc">    0.06    0.06</time>
 <structure>
  <crystal>
   <varray name="basis" >
    <v>       5.05260000       0.00000000       0.00000000 </v>
    <v>       0.00000000       5.05260000       0.00000000 </v>
    <v>       0.00000000       0.00000000      14.57270000 </v>
   </varray>
   <i name="volume">    372.02305936 </i>
   <varray name="rec_basis" >
    <v>       0.19791790       0.00000000       0.00000000 </v>
    <v>       0.00000000       0.19791790       0.00000000 </v>
    <v>       0.00000000       0.00000000       0.06862146 </v>
   </varray>
  </crystal>
  <varray name="positions" >
   <v>       0.00373778       0.00017051       0.19314120 </v>
   <v>       0.25000000       0.25000000       0.06862000 </v>
   <v>       0.25352664       0.36212952       0.29673782 </v>
   <v>       0.25069575       0.99856666       0.12780617 </v>
   <v>       0.00326969       0.26167509       0.25024354 </v>
   <v>       0.00434140       0.49871210       0.17563965 </v>
   <v>       0.25000000       0.75000000       0.06862000 </v>
   <v>       0.25308362       0.63970701       0.29599598 </v>
   <v>       0.25375938       0.50018921       0.11791749 </v>
   <v>       0.00133990       0.73275358       0.25021961 </v>
   <v>       0.50236838       0.99795770       0.19407463 </v>
   <v>       0.75000000       0.25000000       0.06862000 </v>
   <v>       0.75122537       0.36167916       0.29568205 </v>
   <v>       0.74910445       0.99961324       0.12865585 </v>
   <v>       0.50279838       0.26365692       0.25027918 </v>
   <v>       0.50294399       0.50032596       0.17529311 </v>
   <v>       0.75000000       0.75000000       0.06862000 </v>
   <v>       0.75163866       0.63759720       0.29682505 </v>
   <v>       0.74945675       0.50020527       0.11797027 </v>
   <v>       0.50255531       0.73561497       0.25044105 </v>
   <v>       0.39214934       0.25000000       0.01612382 </v>
   <v>       0.10785066       0.25000000       0.01612382 </v>
   <v>       0.39214934       0.75000000       0.01612382 </v>
   <v>       0.10785066       0.75000000       0.01612382 </v>
   <v>       0.89214934       0.25000000       0.01612382 </v>
   <v>       0.60785066       0.25000000       0.01612382 </v>
   <v>       0.89214934       0.75000000       0.01612382 </v>
   <v>       0.60785066       0.75000000       0.01612382 </v>
  </varray>
 </structure>
 <varray name="forces" >
  <v>      -0.40973462      -0.40782603       0.96215998 </v>
  <v>       0.17843770      -1.39195876      -1.45632908 </v>
  <v>      -0.09239084       0.41216265      -0.33007727 </v>
  <v>       0.14288308       0.29083230       0.80752247 </v>
  <v>      -0.02657758       1.24857276      -0.34083819 </v>
  <v>      -0.51341367       0.06362208       1.20690569 </v>
  <v>       0.12926473       1.23861727      -1.56079915 </v>
  <v>      -0.19166434      -0.89395761       0.05738348 </v>
  <v>      -0.35149490      -0.13153961       1.46282227 </v>
  <v>       0.28420558      -0.29905421      -0.67872307 </v>
  <v>      -0.13957540       0.38570585       0.49291145 </v>
  <v>      -0.09391008      -1.36453755      -1.34680084 </v>
  <v>       0.33691113       0.15919045      -0.04131173 </v>
  <v>       0.42389827       0.04793175       0.44202259 </v>
  <v>      -0.24778138       0.78264640      -0.45819958 </v>
  <v>      -0.17233298      -0.09368399       1.50291720 </v>
  <v>      -0.04919198       1.33334756      -1.40241544 </v>
  <v>       0.11608461      -0.41012477      -0.26137293 </v>
  <v>       0.71635783      -0.09009485       1.50239256 </v>
  <v>      -0.03227421      -0.85236933      -0.57280609 </v>
  <v>      -0.12384854      -0.34226951      -0.04130709 </v>
  <v>       0.13291715      -0.28076058       0.06399927 </v>
  <v>      -0.10294487       0.33931171      -0.06227673 </v>
  <v>       0.13342417       0.25613513       0.03627877 </v>
  <v>      -0.12731415      -0.33093383       0.04311721 </v>
  <v>       0.11566636      -0.31717068      -0.02190677 </v>
  <v>      -0.13969847       0.32075282       0.03541387 </v>
  <v>       0.10409738       0.32745258      -0.04068285 </v>
 </varray>
 <varray name="stress" >
  <v>    -244.88971922       0.66193076      -3.46969363 </v>
  <v>       0.66193076     -62.31655266      -0.12597838 </v>
  <v>      -3.46969363      -0.12597838      11.75084319 </v>
 </varray>
 <energy>
  <i name="e_fr_energy">   -198.08270726 </i>
  <i name="e_wo_entrp">   -198.08270726 </i>
  <i name="e_0_energy">   -198.08270726 </i>
  <i name="kinetic">      0.10321948 </i>
  <i name="lattice kinetic">      0.00000000 </i>
  <i name="nosepot">      0.00003525 </i>
  <i name="nosekinetic">      0.48299975 </i>
  <i name="total">   -197.49645277 </i>
 </energy>
 <time name="totalsc">    0.06    0.06</time>
 <structure>
  <crystal>
   <varray name="basis" >
    <v>       5.05260000       0.00000000       0.00000000 </v>
    <v>       0.00000000       5.05260000       0.00000000 </v>
    <v>       0.00000000       0.00000000      14.57270000 </v>
   </varray>
   <i name="volume">    372.02305936 </i>
   <varray name="rec_basis" >
    <v>       0.19791790       0.00000000       0.00000000 </v>
    <v>       0.00000000       0.19791790       0.00000000 </v>
    <v>       0.00000000       0.00000000       0.06862146 </v>
   </varray>
  </crystal>
  <varray name="positions" >
   <v>       0.00376950       0.00076008       0.19326323 </v>
   <v>       0.25000000       0.25000000       0.06862000 </v>
   <v>       0.25311323       0.36307564       0.29667339 </v>
   <v>       0.25038752       0.99907430       0.12754062 </v>
   <v>       0.00328421       0.26129867       0.25003788 </v>
   <v>       0.00441793       0.49805330       0.17580239 </v>
   <v>       0.25000000       0.75000000       0.06862000 </v>
   <v>       0.25221888       0.63880025       0.29604245 </v>
   <v>       0.25372195       0.50016308       0.11823609 </v>
   <v>       0.00176426       0.73275266       0.25010085 </v>
   <v>       0.50265014       0.99779447       0.19424864 </v>
   <v>       0.75000000       0.25000000       0.06862000 </v>
   <v>       0.75099725       0.36251195       0.29573519 </v>
   <v>       0.74917718       0.99929930       0.12836949 </v>
   <v>       0.50254153       0.26333190       0.24990673 </v>
   <v>       0.50299200       0.50029635       0.17560359 </v>
   <v>       0.75000000       0.75000000       0.06862000 </v>
   <v>       0.75139322       0.63617647       0.29674544 </v>
   <v>       0.74866558       0.49975934       0.11833809 </v>
   <v>       0.50246376       0.73613921       0.25008062 </v>
   <v>       0.39214934       0.25000000       0.01612382 </v>
   <v>       0.10785066       0.25000000       0.01612382 </v>
   <v>       0.39214934       0.75000000       0.01612382 </v>
   <v>       0.10785066       0.75000000       0.01612382 </v>
   <v>       0.89214934       0.25000000       0.01612382 </v>
   <v>       0.60785066       0.25000000       0.01612382 </v>
   <v>       0.89214934       0.75000000       0.01612382 </v>
   <v>       0.60785066       0.75000000       0.01612382 </v>
  </varray>
 </structure>
 <varray name="forces" >
  <v>      -0.38754246      -0.57226045       0.80913065 </v>
  <v>       0.17651525      -1.30772069      -1.44398188 </v>
  <v>      -0.03393602      -0.03413146      -0.36315241 </v>
  <v>       0.19724500       0.17243939       0.94309119 </v>
  <v>      -0.08425814       1.42040261      -0.17794112 </v>
  <v>      -0.57379953       0.16928148       1.11139494 </v>
  <v>       0.11222911       1.20935361      -1.50786619 </v>
  <v>       0.02288668      -0.48198173      -0.01952309 </v>
  <v>      -0.36239583      -0.11960944       1.26742426 </v>
  <v>       0.08347787      -0.38822482      -0.58197164 </v>
  <v>      -0.19023080       0.44150637       0.27478296 </v>
  <v>      -0.12683943      -1.37189583      -1.32520189 </v>
  <v>       0.32604557      -0.34202229      -0.13058541 </v>
  <v>       0.41451556       0.12775287       0.59299030 </v>
  <v>      -0.21325302       0.96101878      -0.20258780 </v>
  <v>      -0.27446774      -0.09367108       1.36334759 </v>
  <v>      -0.06457493       1.20195557      -1.33955952 </v>
  <v>       0.15224622       0.13821198      -0.31363448 </v>
  <v>       0.89546373       0.01555738       1.27123760 </v>
  <v>      -0.07588273      -1.11900389      -0.29769963 </v>
  <v>      -0.11969046      -0.32298230      -0.03337121 </v>
  <v>       0.12918738      -0.26126682       0.06163255 </v>
  <v>      -0.09758749       0.32540989      -0.04581866 </v>
  <v>       0.13601079       0.23830129       0.04422892 </v>
  <v>      -0.12085393      -0.30553860       0.05282849 </v>
  <v>       0.11573286      -0.30598178      -0.02678967 </v>
  <v>      -0.13600420       0.29037803       0.05157420 </v>
  <v>       0.09976067       0.31472191      -0.03397906 </v>
 </varray>
 <varray name="stress" >
  <v>    -244.05475167       0.50271692      -2.93727924 </v>
  <v>       0.50271692     -58.29527671       0.07264669 </v>
  <v>      -2.93727924       0.07264669      12.34088225 </v>
 </varray>
 <energy>
  <i name="e_fr_energy">   -198.10258052 </i>
  <i name="e_wo_entrp">   -198.10258052 </i>
  <i name="e_0_energy">   -198.10258052 </i>
  <i name="kinetic">      0.11643987 </i>
  <i name="lattice kinetic">      0.00000000 </i>
  <i name="nosepot">      0.00003945 </i>
  <i name="nosekinetic">      0.48945226 </i>
  <i name="total">   -197.49664894 </i>
 </energy>
 <time name="totalsc">    0.07    0.07</time>
 <structure>
  <crystal>
   <varray name="basis" >
    <v>       5.05260000       0.00000000       0.00000000 </v>
    <v>       0.00000000       5.05260000       0.00000000 </v>
    <v>       0.00000000       0.00000000      14.57270000 </v>
   </varray>
   <i name="volume">    372.02305936 </i>
   <varray name="rec_basis" >
    <v>       0.19791790       0.00000000       0.00000000 </v>
    <v>       0.00000000       0.19791790       0.00000000 </v>
    <v>       0.00000000       0.00000000       0.06862146 </v>
   </varray>
  </crystal>
  <varray name="positions" >
   <v>       0.00366365       0.00113108       0.19348072 </v>
   <v>       0.25000000       0.25000000       0.06862000 </v>
   <v>       0.25269961       0.36398282       0.29656638 </v>
   <v>       0.25015761       0.99962832       0.12739793 </v>
   <v>       0.00326861       0.26143385       0.24981631 </v>
   <v>       0.00428994       0.49747293       0.17609638 </v>
   <v>       0.25000000       0.75000000       0.06862000 </v>
   <v>       0.25138680       0.63774931       0.29608522 </v>
   <v>       0.25355778       0.50009552       0.11870060 </v>
   <v>       0.00220598       0.73261487       0.24991431 </v>
   <v>       0.50285681       0.99779157       0.19445129 </v>
   <v>       0.75000000       0.25000000       0.06862000 </v>
   <v>       0.75089060       0.36320045       0.29577085 </v>
   <v>       0.74939402       0.99903934       0.12816378 </v>
   <v>       0.50221678       0.26335501       0.24952010 </v>
   <v>       0.50294187       0.50023456       0.17607192 </v>
   <v>       0.75000000       0.75000000       0.06862000 </v>
   <v>       0.75120846       0.63484489       0.29662975 </v>
   <v>       0.74821268       0.49933157       0.11885087 </v>
   <v>       0.50234805       0.73625394       0.24969405 </v>
   <v>       0.39214934       0.25000000       0.01612382 </v>
   <v>       0.10785066       0.25000000       0.01612382 </v>
   <v>       0.39214934       0.75000000       0.01612382 </v>
   <v>       0.10785066       0.75000000       0.01612382 </v>
   <v>       0.89214934       0.25000000       0.01612382 </v>
   <v>       0.60785066       0.25000000       0.01612382 </v>
   <v>       0.89214934       0.75000000       0.01612382 </v>
   <v>       0.60785066       0.75000000       0.01612382 </v>
  </varray>
 </structure>
 <varray name="forces" >
  <v>      -0.33676773      -0.66662837       0.61275531 </v>
  <v>       0.16990663      -1.21038144      -1.38196667 </v>
  <v>       0.01179768      -0.47159707      -0.34973075 </v>
  <v>       0.23088977       0.03666671       1.01510117 </v>
  <v>      -0.14016467       1.44961616      -0.01268278 </v>
  <v>      -0.57838350       0.26551458       0.94551235 </v>
  <v>       0.09709906       1.16672487      -1.39767554 </v>
  <v>       0.21771384      -0.03635484      -0.07590837 </v>
  <v>      -0.35628857      -0.09243977       0.99802403 </v>
  <v>      -0.11817543      -0.44151803      -0.42714930 </v>
  <v>      -0.22725174       0.45697288       0.05060748 </v>
  <v>      -0.13955642      -1.35680245      -1.25824423 </v>
  <v>       0.28929639      -0.77371628      -0.17434389 </v>
  <v>       0.37486802       0.19450627       0.70498281 </v>
  <v>      -0.15266464       1.04368988       0.06015727 </v>
  <v>      -0.34525227      -0.08938587       1.12067182 </v>
  <v>      -0.06576733       1.06183392      -1.23238844 </v>
  <v>       0.17963774       0.64644523      -0.33277085 </v>
  <v>       0.98229866       0.11306521       0.96558916 </v>
  <v>      -0.10749899      -1.27114751      -0.00341520 </v>
  <v>      -0.11579051      -0.30011095      -0.01816715 </v>
  <v>       0.12307499      -0.24155824       0.06267649 </v>
  <v>      -0.09411292       0.30781868      -0.02182983 </v>
  <v>       0.13529422       0.22120441       0.05685540 </v>
  <v>      -0.11402263      -0.27959775       0.06137585 </v>
  <v>       0.11478186      -0.29004878      -0.02003579 </v>
  <v>      -0.13088734       0.26024785       0.06722134 </v>
  <v>       0.09592582       0.29698073      -0.01522167 </v>
 </varray>
 <varray name="stress" >
  <v>    -242.79914920       0.32457855      -2.40259663 </v>
  <v>       0.32457855     -54.12780974       0.40351560 </v>
  <v>      -2.40259663       0.40351560      13.43244396 </v>
 </varray>
 <energy>
  <i name="e_fr_energy">   -198.12700529 </i>
  <i name="e_wo_entrp">   -198.12700529 </i>
  <i name="e_0_energy">   -198.12700529 </i>
  <i name="kinetic">      0.13343431 </i>
  <i name="lattice kinetic">      0.00000000 </i>
  <i name="nosepot">      0.00004373 </i>
  <i name="nosekinetic">      0.49685272 </i>
  <i name="total">   -197.49667452 </i>
 </energy>
 <time name="totalsc">    0.06    0.06</time>
 <structure>
  <crystal>
   <varray name="basis" >
    <v>       5.05260000       0.00000000       0.00000000 </v>
    <v>       0.00000000       5.05260000       0.00000000 </v>
    <v>       0.00000000       0.00000000      14.57270000 </v>
   </varray>
   <i name="volume">    372.02305936 </i>
   <varray name="rec_basis" >
    <v>       0.19791790       0.00000000       0.00000000 </v>
    <v>       0.00000000       0.19791790       0.00000000 </v>
    <v>       0.00000000       0.00000000       0.06862146 </v>
   </varray>
  </crystal>
  <varray name="positions" >
   <v>       0.00344210       0.00125640       0.19376688 </v>
   <v>       0.25000000       0.25000000       0.06862000 </v>
   <v>       0.25230200       0.36469772       0.29641969 </v>
[...]
  <i name="lattice kinetic">      0.00000000 </i>
  <i name="nosepot">      0.00544296 </i>
  <i name="nosekinetic">      0.82399893 </i>
  <i name="total">   -197.49030481 </i>
 </energy>
 <time name="totalsc">    0.06    0.06</time>
 <structure>
  <crystal>
   <varray name="basis" >
    <v>       5.05260000       0.00000000       0.00000000 </v>
    <v>       0.00000000       5.05260000       0.00000000 </v>
    <v>       0.00000000       0.00000000      14.57270000 </v>
   </varray>
   <i name="volume">    372.02305936 </i>
   <varray name="rec_basis" >
    <v>       0.19791790       0.00000000       0.00000000 </v>
    <v>       0.00000000       0.19791790       0.00000000 </v>
    <v>       0.00000000       0.00000000       0.06862146 </v>
   </varray>
  </crystal>
  <varray name="positions" >
   <v>       0.00000050       0.00000693       0.19627173 </v>
   <v>       0.25000000       0.25000000       0.06862000 </v>
   <v>       0.25001007       0.36313165       0.29816369 </v>
   <v>       0.24998803       0.99999279       0.13028384 </v>
   <v>       0.00000707       0.26775320       0.25156852 </v>
   <v>       0.00000710       0.49999763       0.17913961 </v>
   <v>       0.25000000       0.75000000       0.06862000 </v>
   <v>       0.25000897       0.63688015       0.29816110 </v>
   <v>       0.24999993       0.49999675       0.12129283 </v>
   <v>       0.99999854       0.73224459       0.25156746 </v>
   <v>       0.50000638       0.99999006       0.19627899 </v>
   <v>       0.75000000       0.25000000       0.06862000 </v>
   <v>       0.74999101       0.36314032       0.29815880 </v>
   <v>       0.74998552       0.00000629       0.13028035 </v>
   <v>       0.50000287       0.26775843       0.25156876 </v>
   <v>       0.50001413       0.50000316       0.17914608 </v>
   <v>       0.75000000       0.75000000       0.06862000 </v>
   <v>       0.74999545       0.63688114       0.29816515 </v>
   <v>       0.74999532       0.50000308       0.12129389 </v>
   <v>       0.49999901       0.73226035       0.25156574 </v>
   <v>       0.39214934       0.25000000       0.01612382 </v>
   <v>       0.10785066       0.25000000       0.01612382 </v>
   <v>       0.39214934       0.75000000       0.01612382 </v>
   <v>       0.10785066       0.75000000       0.01612382 </v>
   <v>       0.89214934       0.25000000       0.01612382 </v>
   <v>       0.60785066       0.25000000       0.01612382 </v>
   <v>       0.89214934       0.75000000       0.01612382 </v>
   <v>       0.60785066       0.75000000       0.01612382 </v>
  </varray>
 </structure>
 <varray name="forces" >
  <v>      -0.00081045      -0.00174569       0.00538583 </v>
  <v>      -0.00010295      -0.97612021      -0.26343173 </v>
  <v>      -0.00141175      -0.00350312      -0.00207557 </v>
  <v>       0.00192925       0.00145859      -0.00144863 </v>
  <v>      -0.00147934       0.00440691      -0.00275903 </v>
  <v>      -0.00131427       0.00040637       0.00380396 </v>
  <v>      -0.00039161       0.97468402      -0.26344843 </v>
  <v>      -0.00199998       0.00377148      -0.00174282 </v>
  <v>       0.00174191       0.00064658       0.00591262 </v>
  <v>       0.00052740      -0.00203243      -0.00291654 </v>
  <v>      -0.00190201       0.00321459       0.00151533 </v>
  <v>      -0.00104206      -0.97466222      -0.26365163 </v>
  <v>       0.00309027      -0.00538897      -0.00058339 </v>
  <v>       0.00242832      -0.00152907      -0.00034182 </v>
  <v>      -0.00004654       0.00230328      -0.00296755 </v>
  <v>      -0.00342732      -0.00009573      -0.00139896 </v>
  <v>      -0.00077660       0.97583957      -0.26365283 </v>
  <v>       0.00115742       0.00446458      -0.00284945 </v>
  <v>       0.00207316      -0.00053138       0.00472969 </v>
  <v>       0.00136484      -0.00556036      -0.00126234 </v>
  <v>      -0.10523053      -0.24772673       0.13184138 </v>
  <v>       0.10506972      -0.24758468       0.13149238 </v>
  <v>      -0.10509753       0.24769370       0.13187437 </v>
  <v>       0.10505792       0.24748662       0.13138638 </v>
  <v>      -0.10495432      -0.24757117       0.13173330 </v>
  <v>       0.10531684      -0.24738833       0.13156656 </v>
  <v>      -0.10502482       0.24759154       0.13172030 </v>
  <v>       0.10525505       0.24747227       0.13156862 </v>
 </varray>
 <varray name="stress" >
  <v>    -254.61947639       0.00315589      -0.01019038 </v>
  <v>       0.00315589     -65.48007527      -0.00546133 </v>
  <v>      -0.01019038      -0.00546133      -3.58783636 </v>
 </varray>
 <energy>
  <i name="e_fr_energy">   -198.31975205 </i>
  <i name="e_wo_entrp">   -198.31975205 </i>
  <i name="e_0_energy">   -198.31975205 </i>
  <i name="kinetic">      0.00000499 </i>
  <i name="lattice kinetic">      0.00000000 </i>
  <i name="nosepot">      0.00547665 </i>
  <i name="nosekinetic">      0.82398397 </i>
  <i name="total">   -197.49028644 </i>
 </energy>
 <time name="totalsc">    0.06    0.06</time>
 <structure>
  <crystal>
   <varray name="basis" >
    <v>       5.05260000       0.00000000       0.00000000 </v>
    <v>       0.00000000       5.05260000       0.00000000 </v>
    <v>       0.00000000       0.00000000      14.57270000 </v>
   </varray>
   <i name="volume">    372.02305936 </i>
   <varray name="rec_basis" >
    <v>       0.19791790       0.00000000       0.00000000 </v>
    <v>       0.00000000       0.19791790       0.00000000 </v>
    <v>       0.00000000       0.00000000       0.06862146 </v>
   </varray>
  </crystal>
  <varray name="positions" >
   <v>       0.00000134       0.00000521       0.19627157 </v>
   <v>       0.25000000       0.25000000       0.06862000 </v>
   <v>       0.25001210       0.36313230       0.29816399 </v>
   <v>       0.24998981       0.99999507       0.13028580 </v>
   <v>       0.00000675       0.26775313       0.25156762 </v>
   <v>       0.00000656       0.49999723       0.17914366 </v>
   <v>       0.25000000       0.75000000       0.06862000 </v>
   <v>       0.25000960       0.63687752       0.29816188 </v>
   <v>       0.25000386       0.49999706       0.12129711 </v>
   <v>       0.99999977       0.73224248       0.25156623 </v>
   <v>       0.50000677       0.99998744       0.19627883 </v>
   <v>       0.75000000       0.25000000       0.06862000 </v>
   <v>       0.74999141       0.36314429       0.29815997 </v>
   <v>       0.74998587       0.00000559       0.13028244 </v>
   <v>       0.50000428       0.26776086       0.25156829 </v>
   <v>       0.50001358       0.50000700       0.17914929 </v>
   <v>       0.75000000       0.75000000       0.06862000 </v>
   <v>       0.74999640       0.63687764       0.29816591 </v>
   <v>       0.74999710       0.50000185       0.12129746 </v>
   <v>       0.49999911       0.73225631       0.25156511 </v>
   <v>       0.39214934       0.25000000       0.01612382 </v>
   <v>       0.10785066       0.25000000       0.01612382 </v>
   <v>       0.39214934       0.75000000       0.01612382 </v>
   <v>       0.10785066       0.75000000       0.01612382 </v>
   <v>       0.89214934       0.25000000       0.01612382 </v>
   <v>       0.60785066       0.25000000       0.01612382 </v>
   <v>       0.89214934       0.75000000       0.01612382 </v>
   <v>       0.60785066       0.75000000       0.01612382 </v>
  </varray>
 </structure>
 <varray name="forces" >
  <v>      -0.00088246      -0.00135936       0.00556830 </v>
  <v>       0.00012524      -0.97543160      -0.26227878 </v>
  <v>      -0.00174883      -0.00425802      -0.00209767 </v>
  <v>       0.00173992       0.00080098      -0.00277361 </v>
  <v>      -0.00123871       0.00438676      -0.00137148 </v>
  <v>      -0.00086451       0.00027922       0.00185906 </v>
  <v>      -0.00022687       0.97431142      -0.26234586 </v>
  <v>      -0.00200605       0.00450984      -0.00182515 </v>
  <v>       0.00078125       0.00076158       0.00352670 </v>
  <v>       0.00039145      -0.00196387      -0.00147663 </v>
  <v>      -0.00181541       0.00388048       0.00184233 </v>
  <v>      -0.00099391      -0.97437436      -0.26259070 </v>
  <v>       0.00318014      -0.00710134      -0.00086949 </v>
  <v>       0.00243282      -0.00158522      -0.00179743 </v>
  <v>      -0.00013399       0.00179190      -0.00202763 </v>
  <v>      -0.00273630      -0.00103568      -0.00275831 </v>
  <v>      -0.00066370       0.97525507      -0.26260895 </v>
  <v>       0.00113783       0.00606099      -0.00301434 </v>
  <v>       0.00175279      -0.00008839       0.00284525 </v>
  <v>       0.00147354      -0.00481786      -0.00009528 </v>
  <v>      -0.10523173      -0.24766937       0.13192311 </v>
  <v>       0.10506538      -0.24747949       0.13171969 </v>
  <v>      -0.10510490       0.24766026       0.13193347 </v>
  <v>       0.10508626       0.24738203       0.13159830 </v>
  <v>      -0.10496160      -0.24753663       0.13187584 </v>
  <v>       0.10528146      -0.24731986       0.13171171 </v>
  <v>      -0.10505558       0.24753559       0.13183962 </v>
  <v>       0.10521648       0.24740495       0.13168792 </v>
 </varray>
 <varray name="stress" >
  <v>    -254.61588507       0.00314043      -0.00927693 </v>
  <v>       0.00314043     -65.47375230      -0.00406434 </v>
  <v>      -0.00927693      -0.00406434      -3.58654096 </v>
 </varray>
 <energy>
  <i name="e_fr_energy">   -198.31975242 </i>
  <i name="e_wo_entrp">   -198.31975242 </i>
  <i name="e_0_energy">   -198.31975242 </i>
  <i name="kinetic">      0.00000499 </i>
  <i name="lattice kinetic">      0.00000000 </i>
  <i name="nosepot">      0.00551044 </i>
  <i name="nosekinetic">      0.82396897 </i>
  <i name="total">   -197.49026803 </i>
 </energy>
 <time name="totalsc">    0.06    0.06</time>
 <structure>
  <crystal>
   <varray name="basis" >
    <v>       5.05260000       0.00000000       0.00000000 </v>
    <v>       0.00000000       5.05260000       0.00000000 </v>
    <v>       0.00000000       0.00000000      14.57270000 </v>
   </varray>
   <i name="volume">    372.02305936 </i>
   <varray name="rec_basis" >
    <v>       0.19791790       0.00000000       0.00000000 </v>
    <v>       0.00000000       0.19791790       0.00000000 </v>
    <v>       0.00000000       0.00000000       0.06862146 </v>
   </varray>
  </crystal>
  <varray name="positions" >
   <v>       0.00000183       0.00000308       0.19627209 </v>
   <v>       0.25000000       0.25000000       0.06862000 </v>
   <v>       0.25001344       0.36313143       0.29816402 </v>
   <v>       0.24999214       0.99999755       0.13028735 </v>
   <v>       0.00000601       0.26775460       0.25156659 </v>
   <v>       0.00000573       0.49999694       0.17914778 </v>
   <v>       0.25000000       0.75000000       0.06862000 </v>
   <v>       0.25000951       0.63687656       0.29816240 </v>
   <v>       0.25000792       0.49999763       0.12130166 </v>
   <v>       0.00000109       0.73223976       0.25156485 </v>
   <v>       0.50000652       0.99998629       0.19627889 </v>
   <v>       0.75000000       0.25000000       0.06862000 </v>
   <v>       0.74999292       0.36314562       0.29816100 </v>
   <v>       0.74998706       0.00000437       0.13028424 </v>
   <v>       0.50000558       0.26776383       0.25156760 </v>
   <v>       0.50001209       0.50001033       0.17915204 </v>
   <v>       0.75000000       0.75000000       0.06862000 </v>
   <v>       0.74999772       0.63687640       0.29816628 </v>
   <v>       0.74999943       0.50000064       0.12130125 </v>
   <v>       0.49999972       0.73225073       0.25156449 </v>
   <v>       0.39214934       0.25000000       0.01612382 </v>
   <v>       0.10785066       0.25000000       0.01612382 </v>
   <v>       0.39214934       0.75000000       0.01612382 </v>
   <v>       0.10785066       0.75000000       0.01612382 </v>
   <v>       0.89214934       0.25000000       0.01612382 </v>
   <v>       0.60785066       0.25000000       0.01612382 </v>
   <v>       0.89214934       0.75000000       0.01612382 </v>
   <v>       0.60785066       0.75000000       0.01612382 </v>
  </varray>
 </structure>
 <varray name="forces" >
  <v>      -0.00086699      -0.00084783       0.00527599 </v>
  <v>       0.00034847      -0.97470234      -0.26112733 </v>
  <v>      -0.00195003      -0.00421358      -0.00195558 </v>
  <v>       0.00143506       0.00013908      -0.00382646 </v>
  <v>      -0.00087285       0.00380400      -0.00004927 </v>
  <v>      -0.00034166       0.00018363      -0.00022171 </v>
  <v>      -0.00003480       0.97397174      -0.26124435 </v>
  <v>      -0.00180037       0.00439957      -0.00171767 </v>
  <v>      -0.00030908       0.00080167       0.00087373 </v>
  <v>       0.00021810      -0.00155101      -0.00008873 </v>
  <v>      -0.00156737       0.00414615       0.00193171 </v>
  <v>      -0.00086161      -0.97410952      -0.26153134 </v>
  <v>       0.00295893      -0.00765053      -0.00101271 </v>
  <v>       0.00227319      -0.00147127      -0.00299792 </v>
  <v>      -0.00022046       0.00106117      -0.00105826 </v>
  <v>      -0.00177963      -0.00187071      -0.00381229 </v>
  <v>      -0.00049631       0.97464221      -0.26157132 </v>
  <v>       0.00106352       0.00649772      -0.00292863 </v>
  <v>       0.00126527       0.00031077       0.00076583 </v>
  <v>       0.00136670      -0.00352192       0.00090959 </v>
  <v>      -0.10522578      -0.24758796       0.13199265 </v>
  <v>       0.10506862      -0.24735312       0.13195398 </v>
  <v>      -0.10511184       0.24760265       0.13197505 </v>
  <v>       0.10511547       0.24726165       0.13182671 </v>
  <v>      -0.10498518      -0.24748527       0.13200860 </v>
  <v>       0.10523361      -0.24724054       0.13186308 </v>
  <v>      -0.10509207       0.24746274       0.13195230 </v>
  <v>       0.10516907       0.24732086       0.13181436 </v>
 </varray>
 <varray name="stress" >
  <v>    -254.60877922       0.00288361      -0.00771025 </v>
  <v>       0.00288361     -65.47542494      -0.00300319 </v>
  <v>      -0.00771025      -0.00300319      -3.58134135 </v>
 </varray>
 <energy>
  <i name="e_fr_energy">   -198.31975267 </i>
  <i name="e_wo_entrp">   -198.31975267 </i>
  <i name="e_0_energy">   -198.31975267 </i>
  <i name="kinetic">      0.00000486 </i>
  <i name="lattice kinetic">      0.00000000 </i>
  <i name="nosepot">      0.00554433 </i>
  <i name="nosekinetic">      0.82395392 </i>
  <i name="total">   -197.49024956 </i>
 </energy>
 <time name="totalsc">    0.01    0.01</time>
 <structure name="finalpos" >
  <crystal>
   <varray name="basis" >
    <v>       5.05260000       0.00000000       0.00000000 </v>
    <v>       0.00000000       5.05260000       0.00000000 </v>
    <v>       0.00000000       0.00000000      14.57270000 </v>
   </varray>
   <i name="volume">    372.02305936 </i>
   <varray name="rec_basis" >
    <v>       0.19791790       0.00000000       0.00000000 </v>
    <v>       0.00000000       0.19791790       0.00000000 </v>
    <v>       0.00000000       0.00000000       0.06862146 </v>
   </varray>
  </crystal>
  <varray name="positions" >
   <v>       0.00000201       0.00000073       0.19627324 </v>
   <v>       0.25000000       0.25000000       0.06862000 </v>
   <v>       0.25001404       0.36312911       0.29816382 </v>
   <v>       0.24999488       0.99999998       0.13028837 </v>
   <v>       0.00000499       0.26775736       0.25156559 </v>
   <v>       0.00000481       0.49999672       0.17915172 </v>
   <v>       0.25000000       0.75000000       0.06862000 </v>
   <v>       0.25000878       0.63687719       0.29816270 </v>
   <v>       0.25001172       0.49999846       0.12130615 </v>
   <v>       0.00000244       0.73223659       0.25156352 </v>
   <v>       0.50000572       0.99998663       0.19627919 </v>
   <v>       0.75000000       0.25000000       0.06862000 </v>
   <v>       0.74999541       0.36314421       0.29816186 </v>
   <v>       0.74998901       0.00000268       0.13028560 </v>
   <v>       0.50000676       0.26776707       0.25156680 </v>
   <v>       0.50001003       0.50001289       0.17915423 </v>
   <v>       0.75000000       0.75000000       0.06862000 </v>
   <v>       0.74999936       0.63687748       0.29816628 </v>
   <v>       0.75000212       0.49999958       0.12130499 </v>
   <v>       0.50000080       0.73224412       0.25156400 </v>
   <v>       0.39214934       0.25000000       0.01612382 </v>
   <v>       0.10785066       0.25000000       0.01612382 </v>
   <v>       0.39214934       0.75000000       0.01612382 </v>
   <v>       0.10785066       0.75000000       0.01612382 </v>
   <v>       0.89214934       0.25000000       0.01612382 </v>
   <v>       0.60785066       0.25000000       0.01612382 </v>
   <v>       0.89214934       0.75000000       0.01612382 </v>
   <v>       0.60785066       0.75000000       0.01612382 </v>
  </varray>
  <varray name="selective"  type="logical" >
   <v type="logical" >  T  T  T </v>
   <v type="logical" >  F  F  F </v>
   <v type="logical" >  T  T  T </v>
   <v type="logical" >  T  T  T </v>
   <v type="logical" >  T  T  T </v>
   <v type="logical" >  T  T  T </v>
   <v type="logical" >  F  F  F </v>
   <v type="logical" >  T  T  T </v>
   <v type="logical" >  T  T  T </v>
   <v type="logical" >  T  T  T </v>
   <v type="logical" >  T  T  T </v>
   <v type="logical" >  F  F  F </v>
   <v type="logical" >  T  T  T </v>
   <v type="logical" >  T  T  T </v>
   <v type="logical" >  T  T  T </v>
   <v type="logical" >  T  T  T </v>
   <v type="logical" >  F  F  F </v>
   <v type="logical" >  T  T  T </v>
   <v type="logical" >  T  T  T </v>
   <v type="logical" >  T  T  T </v>
   <v type="logical" >  F  F  F </v>
   <v type="logical" >  F  F  F </v>
   <v type="logical" >  F  F  F </v>
   <v type="logical" >  F  F  F </v>
   <v type="logical" >  F  F  F </v>
   <v type="logical" >  F  F  F </v>
   <v type="logical" >  F  F  F </v>
   <v type="logical" >  F  F  F </v>
  </varray>
  <varray name="velocities" >
   <v>       0.00000017      -0.00000235       0.00000114 </v>
   <v>       0.00000000       0.00000000       0.00000000 </v>
   <v>       0.00000061      -0.00000232      -0.00000020 </v>
   <v>       0.00000275       0.00000243       0.00000103 </v>
   <v>      -0.00000102       0.00000275      -0.00000100 </v>
   <v>      -0.00000092      -0.00000022       0.00000394 </v>
   <v>       0.00000000       0.00000000       0.00000000 </v>
   <v>      -0.00000072       0.00000062       0.00000030 </v>
   <v>       0.00000380       0.00000083       0.00000449 </v>
   <v>       0.00000135      -0.00000317      -0.00000133 </v>
   <v>      -0.00000080       0.00000034       0.00000030 </v>
   <v>       0.00000000       0.00000000       0.00000000 </v>
   <v>       0.00000249      -0.00000141       0.00000086 </v>
   <v>       0.00000195      -0.00000169       0.00000137 </v>
   <v>       0.00000118       0.00000323      -0.00000080 </v>
   <v>      -0.00000206       0.00000256       0.00000219 </v>
   <v>       0.00000000       0.00000000       0.00000000 </v>
   <v>       0.00000164       0.00000108      -0.00000000 </v>
   <v>       0.00000269      -0.00000106       0.00000374 </v>
   <v>       0.00000107      -0.00000661      -0.00000049 </v>
   <v>       0.00000000       0.00000000       0.00000000 </v>
   <v>       0.00000000       0.00000000       0.00000000 </v>
   <v>       0.00000000       0.00000000       0.00000000 </v>
   <v>       0.00000000       0.00000000       0.00000000 </v>
   <v>       0.00000000       0.00000000       0.00000000 </v>
   <v>       0.00000000       0.00000000       0.00000000 </v>
   <v>       0.00000000       0.00000000       0.00000000 </v>
   <v>       0.00000000       0.00000000       0.00000000 </v>
  </varray>
  <nose>
   <v>       1.00000000       0.00000000       0.00010000       0.10000000 </v>
  </nose>
 </structure>
</modeling>
