C100                                    
           1
     5.052600    0.000000    0.000000
     0.000000    5.052600    0.000000
     0.000000    0.000000   14.572700
   C    H 
    20     8
Direct configuration=    10
   0.00376950  1.00076008  0.19326323
   0.25000000  0.25000000  0.06862000
   0.25311323  0.36307564  0.29667339
   0.25038752  0.99907430  0.12754062
   0.00328421  0.26129867  0.25003788
   0.00441793  0.49805330  0.17580239
   0.25000000  0.75000000  0.06862000
   0.25221888  0.63880025  0.29604245
   0.25372195  0.50016308  0.11823609
   0.00176426  0.73275266  0.25010085
   0.50265014 -0.00220553  0.19424864
   0.75000000  0.25000000  0.06862000
   0.75099725  0.36251195  0.29573519
   0.74917718 -0.00070070  0.12836949
   0.50254153  0.26333190  0.24990673
   0.50299200  0.50029635  0.17560359
   0.75000000  0.75000000  0.06862000
   0.75139322  0.63617647  0.29674544
   0.74866558  0.49975934  0.11833809
   0.50246376  0.73613921  0.25008062
   0.39214934  0.25000000  0.01612382
   0.10785066  0.25000000  0.01612382
   0.39214934  0.75000000  0.01612382
   0.10785066  0.75000000  0.01612382
   0.89214934  0.25000000  0.01612382
   0.60785066  0.25000000  0.01612382
   0.89214934  0.75000000  0.01612382
   0.60785066  0.75000000  0.01612382
Direct configuration=    20
   0.00061473  0.99773300  0.19560808
   0.25000000  0.25000000  0.06862000
   0.25014881  0.36069285  0.29557143
   0.25131449  1.00062521  0.13023226
   0.00034323  0.27075687  0.24962933
  -0.00084356  0.49877053  0.17947631
   0.25000000  0.75000000  0.06862000
   0.25052204  0.63582822  0.29630099
   0.24900216  0.49953516  0.12286747
   0.00052299  0.72895737  0.24911871
   0.50100435  0.00116214  0.19466550
   0.75000000  0.25000000  0.06862000
   0.75169600  0.35914123  0.29611333
   0.75312572  0.00010139  0.12985668
   0.50024216  0.27032715  0.24924277
   0.49908857  0.49901916  0.18001536
   0.75000000  0.75000000  0.06862000
   0.75175552  0.63588056  0.29516729
   0.75283551  0.49925723  0.12291490
   0.50021108  0.72726969  0.24955463
   0.39214934  0.25000000  0.01612382
   0.10785066  0.25000000  0.01612382
   0.39214934  0.75000000  0.01612382
   0.10785066  0.75000000  0.01612382
   0.89214934  0.25000000  0.01612382
   0.60785066  0.25000000  0.01612382
   0.89214934  0.75000000  0.01612382
   0.60785066  0.75000000  0.01612382
Direct configuration=    30
  -0.00025725  1.00052026  0.19640496
   0.25000000  0.25000000  0.06862000
   0.24937921  0.36132831  0.29860500
   0.24993887  0.99903123  0.13043112
  -0.00085904  0.26295824  0.25217844
  -0.00086442  0.50085983  0.17826749
   0.25000000  0.75000000  0.06862000
   0.24934881  0.63396070  0.29846663
   0.24955074  0.50006425  0.11943334
   0.00038610  0.73338976  0.25285045
   0.50028269 -0.00201081  0.19690901
   0.75000000  0.25000000  0.06862000
   0.74837364  0.36304534  0.29891479
   0.74839130 -0.00017574  0.13022434
   0.49984398  0.26321180  0.25252886
   0.49997240  0.49961323  0.17758987
   0.75000000  0.75000000  0.06862000
   0.74841496  0.63522101  0.29859697
   0.74658341  0.50073818  0.11927764
   0.49996055  0.73467171  0.25251204
   0.39214934  0.25000000  0.01612382
   0.10785066  0.25000000  0.01612382
   0.39214934  0.75000000  0.01612382
   0.10785066  0.75000000  0.01612382
   0.89214934  0.25000000  0.01612382
   0.60785066  0.25000000  0.01612382
   0.89214934  0.75000000  0.01612382
   0.60785066  0.75000000  0.01612382
Direct configuration=    40
  -0.00166020  0.99889839  0.19764403
   0.25000000  0.25000000  0.06862000
   0.24844529  0.36306897  0.29975223
   0.24822900  1.00045870  0.13094519
  -0.00163635  0.27029763  0.25210831
  -0.00106820  0.49831249  0.18042129
   0.25000000  0.75000000  0.06862000
   0.24889153  0.63569469  0.29961367
   0.24889188  0.49982043  0.12310523
  -0.00265206  0.72986064  0.25237925
   0.49794052 -0.00016208  0.19773254
   0.75000000  0.25000000  0.06862000
   0.74895998  0.36305863  0.29939833
   0.74929888 -0.00063471  0.13129520
   0.49839874  0.26884198  0.25222405
   0.49821675  0.49898115  0.18101656
   0.75000000  0.75000000  0.06862000
   0.74903406  0.63532763  0.30048103
   0.75090709  0.49889451  0.12321495
   0.49815351  0.72776881  0.25233546
   0.39214934  0.25000000  0.01612382
   0.10785066  0.25000000  0.01612382
   0.39214934  0.75000000  0.01612382
   0.10785066  0.75000000  0.01612382
   0.89214934  0.25000000  0.01612382
   0.60785066  0.25000000  0.01612382
   0.89214934  0.75000000  0.01612382
   0.60785066  0.75000000  0.01612382
Direct configuration=    50
  -0.00186906  0.99977577  0.19665964
   0.25000000  0.25000000  0.06862000
   0.24792473  0.36174454  0.29937032
   0.24920444  0.99903714  0.13053306
  -0.00121910  0.26466899  0.25357739
  -0.00076422  0.50083757  0.18043153
   0.25000000  0.75000000  0.06862000
   0.24724976  0.63852740  0.29954397
   0.25009514  0.49976424  0.12132846
  -0.00118221  0.73324653  0.25320784
   0.49828021 -0.00071127  0.19630828
   0.75000000  0.25000000  0.06862000
   0.74846230  0.36022625  0.29941453
   0.74876694  0.00034633  0.13040452
   0.49790336  0.26609664  0.25352971
   0.49976715  0.49978270  0.18003382
   0.75000000  0.75000000  0.06862000
   0.74798609  0.63805196  0.29888883
   0.74864566  0.50075027  0.12130545
   0.49833292  0.73469543  0.25350337
   0.39214934  0.25000000  0.01612382
   0.10785066  0.25000000  0.01612382
   0.39214934  0.75000000  0.01612382
   0.10785066  0.75000000  0.01612382
   0.89214934  0.25000000  0.01612382
   0.60785066  0.25000000  0.01612382
   0.89214934  0.75000000  0.01612382
   0.60785066  0.75000000  0.01612382
Direct configuration=    60
  -0.00034804  1.00022858  0.19687105
   0.25000000  0.25000000  0.06862000
   0.24911958  0.36395303  0.29874072
   0.24943622  1.00093500  0.13044292
  -0.00170537  0.26977122  0.25141419
  -0.00092174  0.49883929  0.17886319
   0.25000000  0.75000000  0.06862000
   0.24947152  0.63592700  0.29868382
   0.24868215  0.50031977  0.12153777
  -0.00145015  0.73104723  0.25140598
   0.49949329  0.00105937  0.19725857
   0.75000000  0.25000000  0.06862000
   0.74789374  0.36488544  0.29884284
   0.74929188 -0.00024763  0.13039940
   0.49913511  0.26911929  0.25115086
   0.49845418  0.50087860  0.17916283
   0.75000000  0.75000000  0.06862000
   0.74841952  0.63589711  0.29843406
   0.74945959  0.49939923  0.12153120
   0.49863600  0.73083374  0.25129794
   0.39214934  0.25000000  0.01612382
   0.10785066  0.25000000  0.01612382
   0.39214934  0.75000000  0.01612382
   0.10785066  0.75000000  0.01612382
   0.89214934  0.25000000  0.01612382
   0.60785066  0.25000000  0.01612382
   0.89214934  0.75000000  0.01612382
   0.60785066  0.75000000  0.01612382
Direct configuration=    70
  -0.00060130  1.00015516  0.19576625
   0.25000000  0.25000000  0.06862000
   0.24897382  0.36348731  0.29713793
   0.25002279  0.99959865  0.13036246
  -0.00036985  0.26680020  0.25117507
  -0.00116902  0.50131338  0.17885499
   0.25000000  0.75000000  0.06862000
   0.24906413  0.63703556  0.29707672
   0.24940651  0.49977701  0.12091262
  -0.00030778  0.73378337  0.25107841
   0.49950205 -0.00024623  0.19538116
   0.75000000  0.25000000  0.06862000
   0.75011527  0.36390942  0.29706657
   0.75046451  0.00041493  0.13047079
   0.49923120  0.26772210  0.25128989
   0.49928573  0.49956671  0.17851215
   0.75000000  0.75000000  0.06862000
   0.74998197  0.63788946  0.29764388
   0.74924656  0.50051183  0.12094847
   0.49956689  0.73375081  0.25112209
   0.39214934  0.25000000  0.01612382
   0.10785066  0.25000000  0.01612382
   0.39214934  0.75000000  0.01612382
   0.10785066  0.75000000  0.01612382
   0.89214934  0.25000000  0.01612382
   0.60785066  0.25000000  0.01612382
   0.89214934  0.75000000  0.01612382
   0.60785066  0.75000000  0.01612382
Direct configuration=    80
   0.00027410  1.00054424  0.19562479
   0.25000000  0.25000000  0.06862000
   0.25040724  0.36365220  0.29735249
   0.24984629  1.00021271  0.12941585
   0.00011300  0.26924021  0.25070253
   0.00039948  0.49974572  0.17848550
   0.25000000  0.75000000  0.06862000
   0.25019399  0.63841895  0.29735731
   0.25018100  0.50035428  0.12108561
  -0.00006631  0.73242501  0.25094103
   0.50027938  0.00026844  0.19590528
   0.75000000  0.25000000  0.06862000
   0.74964682  0.36283497  0.29734935
   0.74924579 -0.00027867  0.12931156
   0.50033115  0.26777903  0.25083582
   0.50045134  0.50074997  0.17889736
   0.75000000  0.75000000  0.06862000
   0.74951134  0.63787444  0.29725212
   0.74988900  0.49985707  0.12102208
   0.50030491  0.73206745  0.25078549
   0.39214934  0.25000000  0.01612382
   0.10785066  0.25000000  0.01612382
   0.39214934  0.75000000  0.01612382
   0.10785066  0.75000000  0.01612382
   0.89214934  0.25000000  0.01612382
   0.60785066  0.25000000  0.01612382
   0.89214934  0.75000000  0.01612382
   0.60785066  0.75000000  0.01612382
Direct configuration=    90
  -0.00005147  1.00024944  0.19595711
   0.25000000  0.25000000  0.06862000
   0.25039308  0.36369480  0.29798505
   0.25015235  1.00021356  0.13058667
   0.00047177  0.26778751  0.25123254
   0.00061204  0.50067394  0.17901850
   0.25000000  0.75000000  0.06862000
   0.25055016  0.63678333  0.29809399
   0.25060499  0.49983200  0.12113346
   0.00037332  0.73252056  0.25099896
   0.49996147  0.00043043  0.19584318
   0.75000000  0.25000000  0.06862000
   0.75093123  0.36392873  0.29807941
   0.75074122  0.00048651  0.13057430
   0.50028626  0.26887952  0.25120299
   0.50026554  0.49974882  0.17864009
   0.75000000  0.75000000  0.06862000
   0.75094733  0.63637301  0.29780411
   0.75107728  0.50008645  0.12118364
   0.50009897  0.73263246  0.25111830
   0.39214934  0.25000000  0.01612382
   0.10785066  0.25000000  0.01612382
   0.39214934  0.75000000  0.01612382
   0.10785066  0.75000000  0.01612382
   0.89214934  0.25000000  0.01612382
   0.60785066  0.25000000  0.01612382
   0.89214934  0.75000000  0.01612382
   0.60785066  0.75000000  0.01612382
Direct configuration=   100
   0.00090868  0.99990916  0.19681154
   0.25000000  0.25000000  0.06862000
   0.25072240  0.36330665  0.29830484
   0.25030021  0.99990424  0.13012645
   0.00069249  0.26736563  0.25213240
   0.00050971  0.49958288  0.17912219
   0.25000000  0.75000000  0.06862000
   0.25055377  0.63668261  0.29812722
   0.25026601  0.50018508  0.12134102
   0.00100045  0.73267118  0.25206643
   0.50074080  0.00006373  0.19680419
   0.75000000  0.25000000  0.06862000
   0.75035729  0.36351319  0.29816416
   0.74976074 -0.00020803  0.13025502
   0.50072608  0.26701929  0.25195643
   0.50075392  0.50062990  0.17943888
   0.75000000  0.75000000  0.06862000
   0.75044781  0.63747174  0.29830735
   0.74983073  0.50011961  0.12134249
   0.50092777  0.73288858  0.25198564
   0.39214934  0.25000000  0.01612382
   0.10785066  0.25000000  0.01612382
   0.39214934  0.75000000  0.01612382
   0.10785066  0.75000000  0.01612382
   0.89214934  0.25000000  0.01612382
   0.60785066  0.25000000  0.01612382
   0.89214934  0.75000000  0.01612382
   0.60785066  0.75000000  0.01612382
Direct configuration=   110
   0.00034050  0.99994020  0.19632472
   0.25000000  0.25000000  0.06862000
   0.25068460  0.36264709  0.29876705
   0.25045703  1.00003268  0.13069432
   0.00047753  0.26835761  0.25170571
   0.00009698  0.50010322  0.17975178
   0.25000000  0.75000000  0.06862000
   0.25088236  0.63735756  0.29882497
   0.25014083  0.49983977  0.12161997
   0.00029322  0.73144421  0.25176187
   0.50046389 -0.00011500  0.19630517
   0.75000000  0.25000000  0.06862000
   0.75071078  0.36260346  0.29879634
   0.75090796 -0.00002200  0.13060041
   0.50058018  0.26857836  0.25182569
   0.49998641  0.49949657  0.17951213
   0.75000000  0.75000000  0.06862000
   0.75075774  0.63708744  0.29892231
   0.75046255  0.49976749  0.12157874
   0.50047195  0.73147941  0.25188462
   0.39214934  0.25000000  0.01612382
   0.10785066  0.25000000  0.01612382
   0.39214934  0.75000000  0.01612382
   0.10785066  0.75000000  0.01612382
   0.89214934  0.25000000  0.01612382
   0.60785066  0.25000000  0.01612382
   0.89214934  0.75000000  0.01612382
   0.60785066  0.75000000  0.01612382
Direct configuration=   120
   0.00039320  0.99997789  0.19654727
   0.25000000  0.25000000  0.06862000
   0.25015182  0.36313774  0.29833319
   0.25016669  0.99989584  0.13012888
   0.00042342  0.26705477  0.25198942
   0.00039975  0.50003273  0.17908330
   0.25000000  0.75000000  0.06862000
   0.24998450  0.63650396  0.29842124
   0.25021099  0.50008090  0.12127336
   0.00040557  0.73287370  0.25206413
   0.50049240 -0.00014090  0.19663055
   0.75000000  0.25000000  0.06862000
   0.75040032  0.36293894  0.29844729
   0.74981383  0.00007863  0.13008570
   0.50032331  0.26680784  0.25197317
   0.50053693  0.50015918  0.17925024
   0.75000000  0.75000000  0.06862000
   0.75025170  0.63616004  0.29827267
   0.75004574  0.50023240  0.12131873
   0.50039058  0.73251168  0.25189543
   0.39214934  0.25000000  0.01612382
   0.10785066  0.25000000  0.01612382
   0.39214934  0.75000000  0.01612382
   0.10785066  0.75000000  0.01612382
   0.89214934  0.25000000  0.01612382
   0.60785066  0.25000000  0.01612382
   0.89214934  0.75000000  0.01612382
   0.60785066  0.75000000  0.01612382
Direct configuration=   130
  -0.00006475  0.99993378  0.19627241
   0.25000000  0.25000000  0.06862000
   0.25024045  0.36298365  0.29810838
   0.24994384  1.00008163  0.13054910
  -0.00001072  0.26799103  0.25129031
   0.00015138  0.49979424  0.17928322
   0.25000000  0.75000000  0.06862000
   0.25031794  0.63639805  0.29802789
   0.25024440  0.49994309  0.12140927
   0.00004144  0.73152057  0.25132523
   0.49973938 -0.00009324  0.19618091
   0.75000000  0.25000000  0.06862000
   0.74997204  0.36302456  0.29801698
   0.75018429 -0.00016158  0.13064492
   0.50005132  0.26797381  0.25136385
   0.50000829  0.49971121  0.17920250
   0.75000000  0.75000000  0.06862000
   0.75000933  0.63677646  0.29806149
   0.75027750  0.49974917  0.12136556
   0.49996983  0.73171948  0.25143114
   0.39214934  0.25000000  0.01612382
   0.10785066  0.25000000  0.01612382
   0.39214934  0.75000000  0.01612382
   0.10785066  0.75000000  0.01612382
   0.89214934  0.25000000  0.01612382
   0.60785066  0.25000000  0.01612382
   0.89214934  0.75000000  0.01612382
   0.60785066  0.75000000  0.01612382
Direct configuration=   140
  -0.00010322  0.99969147  0.19608348
   0.25000000  0.25000000  0.06862000
   0.24976510  0.36258839  0.29793045
   0.24987708  0.99981028  0.12991043
  -0.00008045  0.26731602  0.25151915
  -0.00012293  0.49989332  0.17878535
   0.25000000  0.75000000  0.06862000
   0.24978479  0.63704007  0.29793612
   0.24981116  0.49992128  0.12101943
  -0.00007628  0.73228372  0.25143538
   0.49997388 -0.00014310  0.19613403
   0.75000000  0.25000000  0.06862000
   0.74994587  0.36286597  0.29788459
   0.74974696  0.00004126  0.12988531
   0.49984341  0.26749909  0.25137902
   0.49993040  0.49998745  0.17879757
   0.75000000  0.75000000  0.06862000
   0.75003232  0.63699815  0.29798141
   0.74986444  0.50011843  0.12106976
   0.49990062  0.73230884  0.25138575
   0.39214934  0.25000000  0.01612382
   0.10785066  0.25000000  0.01612382
   0.39214934  0.75000000  0.01612382
   0.10785066  0.75000000  0.01612382
   0.89214934  0.25000000  0.01612382
   0.60785066  0.25000000  0.01612382
   0.89214934  0.75000000  0.01612382
   0.60785066  0.75000000  0.01612382
Direct configuration=   150
  -0.00016987  1.00010380  0.19607637
   0.25000000  0.25000000  0.06862000
   0.24985155  0.36343334  0.29790073
   0.24997946  1.00010589  0.13037024
  -0.00024160  0.26779329  0.25124796
  -0.00024625  0.49990781  0.17917677
   0.25000000  0.75000000  0.06862000
   0.24978625  0.63664372  0.29793680
   0.24982712  0.50007929  0.12141098
  -0.00023102  0.73209409  0.25130145
   0.49987797  0.00004215  0.19605720
   0.75000000  0.25000000  0.06862000
   0.74969632  0.36313212  0.29798616
   0.75001365 -0.00009452  0.13032201
   0.49983937  0.26779284  0.25132130
   0.49975365  0.50002841  0.17919313
   0.75000000  0.75000000  0.06862000
   0.74963231  0.63650223  0.29788976
   0.74975400  0.49990726  0.12136453
   0.49985926  0.73207403  0.25134870
   0.39214934  0.25000000  0.01612382
   0.10785066  0.25000000  0.01612382
   0.39214934  0.75000000  0.01612382
   0.10785066  0.75000000  0.01612382
   0.89214934  0.25000000  0.01612382
   0.60785066  0.25000000  0.01612382
   0.89214934  0.75000000  0.01612382
   0.60785066  0.75000000  0.01612382
Direct configuration=   160
  -0.00011133  0.99999964  0.19635888
   0.25000000  0.25000000  0.06862000
   0.24968456  0.36307058  0.29814751
   0.24991533  0.99995985  0.13018985
  -0.00022361  0.26781473  0.25160159
  -0.00020297  0.50017777  0.17900872
   0.25000000  0.75000000  0.06862000
   0.24973554  0.63688280  0.29814158
   0.24989094  0.49992630  0.12115718
  -0.00029578  0.73238980  0.25161250
   0.49984392 -0.00001292  0.19636353
   0.75000000  0.25000000  0.06862000
   0.74982894  0.36309965  0.29815249
   0.74994572  0.00012483  0.13023282
   0.49974818  0.26765423  0.25160763
   0.49984267  0.49991582  0.17898955
   0.75000000  0.75000000  0.06862000
   0.74982641  0.63692205  0.29815836
   0.74994962  0.50005325  0.12118270
   0.49967507  0.73243437  0.25159011
   0.39214934  0.25000000  0.01612382
   0.10785066  0.25000000  0.01612382
   0.39214934  0.75000000  0.01612382
   0.10785066  0.75000000  0.01612382
   0.89214934  0.25000000  0.01612382
   0.60785066  0.25000000  0.01612382
   0.89214934  0.75000000  0.01612382
   0.60785066  0.75000000  0.01612382
Direct configuration=   170
  -0.00017172  1.00006866  0.19631685
   0.25000000  0.25000000  0.06862000
   0.24985683  0.36304612  0.29831105
   0.24987059  1.00002188  0.13038285
  -0.00014267  0.26787589  0.25164791
   0.00000460  0.49993980  0.17926685
   0.25000000  0.75000000  0.06862000
   0.24982160  0.63708924  0.29828464
   0.24993564  0.50008378  0.12139890
  -0.00006945  0.73223739  0.25164780
   0.49982417  0.00000568  0.19632918
   0.75000000  0.25000000  0.06862000
   0.74977668  0.36322593  0.29824259
   0.74980609 -0.00010022  0.13038361
   0.49982919  0.26798186  0.25164097
   0.49992348  0.50012150  0.17929280
   0.75000000  0.75000000  0.06862000
   0.74977574  0.63715975  0.29830532
   0.74988063  0.50000353  0.12139459
   0.49989119  0.73202388  0.25161628
   0.39214934  0.25000000  0.01612382
   0.10785066  0.25000000  0.01612382
   0.39214934  0.75000000  0.01612382
   0.10785066  0.75000000  0.01612382
   0.89214934  0.25000000  0.01612382
   0.60785066  0.25000000  0.01612382
   0.89214934  0.75000000  0.01612382
   0.60785066  0.75000000  0.01612382
Direct configuration=   180
  -0.00011977  1.00000274  0.19636556
   0.25000000  0.25000000  0.06862000
   0.24996038  0.36336708  0.29826408
   0.24993099  1.00002275  0.13028259
  -0.00009249  0.26776694  0.25170412
  -0.00013248  0.50007518  0.17926866
   0.25000000  0.75000000  0.06862000
   0.25000921  0.63687777  0.29828430
   0.24996555  0.49994314  0.12136406
  -0.00010453  0.73230392  0.25166610
   0.49988548  0.00010006  0.19633743
   0.75000000  0.25000000  0.06862000
   0.74997063  0.36323460  0.29828881
   0.75000230  0.00008970  0.13026137
   0.49995159  0.26771540  0.25169494
   0.49991146  0.49995344  0.17922896
   0.75000000  0.75000000  0.06862000
   0.74999810  0.63686196  0.29824209
   0.75003405  0.49998390  0.12136008
   0.49992344  0.73258270  0.25170901
   0.39214934  0.25000000  0.01612382
   0.10785066  0.25000000  0.01612382
   0.39214934  0.75000000  0.01612382
   0.10785066  0.75000000  0.01612382
   0.89214934  0.25000000  0.01612382
   0.60785066  0.25000000  0.01612382
   0.89214934  0.75000000  0.01612382
   0.60785066  0.75000000  0.01612382
Direct configuration=   190
   0.00008170  1.00005799  0.19630347
   0.25000000  0.25000000  0.06862000
   0.24999862  0.36314929  0.29819817
   0.25002944  1.00000689  0.13031628
   0.00005881  0.26782214  0.25158832
   0.00004236  0.49999531  0.17909294
   0.25000000  0.75000000  0.06862000
   0.24994630  0.63699242  0.29819222
   0.24998752  0.50006034  0.12127464
   0.00003189  0.73233478  0.25157738
   0.50009972  0.00004061  0.19632740
   0.75000000  0.25000000  0.06862000
   0.75000299  0.36313151  0.29823784
   0.74997152 -0.00001127  0.13033049
   0.50001530  0.26791410  0.25157677
   0.50004486  0.50016368  0.17914078
   0.75000000  0.75000000  0.06862000
   0.74999548  0.63690340  0.29821299
   0.74990068  0.50004833  0.12127933
   0.50002954  0.73215948  0.25156241
   0.39214934  0.25000000  0.01612382
   0.10785066  0.25000000  0.01612382
   0.39214934  0.75000000  0.01612382
   0.10785066  0.75000000  0.01612382
   0.89214934  0.25000000  0.01612382
   0.60785066  0.25000000  0.01612382
   0.89214934  0.75000000  0.01612382
   0.60785066  0.75000000  0.01612382
Direct configuration=   200
   0.00005706  1.00002989  0.19625108
   0.25000000  0.25000000  0.06862000
   0.25007296  0.36309021  0.29808196
   0.25009820  1.00002225  0.13027251
   0.00003150  0.26785076  0.25149185
   0.00001970  0.50006078  0.17916135
   0.25000000  0.75000000  0.06862000
   0.25009042  0.63692156  0.29807075
   0.25003326  0.49997919  0.12130569
   0.00004533  0.73217157  0.25151371
   0.50003530  0.00000255  0.19624649
   0.75000000  0.25000000  0.06862000
   0.75008439  0.36315585  0.29804252
   0.75013484  0.00000864  0.13027051
   0.50007805  0.26777562  0.25151606
   0.50001288  0.49989632  0.17911716
   0.75000000  0.75000000  0.06862000
   0.75005542  0.63700099  0.29809049
   0.75012863  0.49996987  0.12130079
   0.50006713  0.73226691  0.25152371
   0.39214934  0.25000000  0.01612382
   0.10785066  0.25000000  0.01612382
   0.39214934  0.75000000  0.01612382
   0.10785066  0.75000000  0.01612382
   0.89214934  0.25000000  0.01612382
   0.60785066  0.25000000  0.01612382
   0.89214934  0.75000000  0.01612382
   0.60785066  0.75000000  0.01612382
Direct configuration=   210
   0.00007813  0.99996844  0.19620456
   0.25000000  0.25000000  0.06862000
   0.25008524  0.36315622  0.29809078
   0.24998287  0.99996766  0.13021285
   0.00010742  0.26768120  0.25150803
   0.00009928  0.49997696  0.17905436
   0.25000000  0.75000000  0.06862000
   0.25010218  0.63680921  0.29810493
   0.25007934  0.49999953  0.12125188
   0.00011075  0.73236212  0.25150660
   0.50009565 -0.00002851  0.19619851
   0.75000000  0.25000000  0.06862000
   0.75006638  0.36314927  0.29808986
   0.74996540 -0.00000242  0.13020492
   0.50006822  0.26766247  0.25149991
   0.50010129  0.50005617  0.17908967
   0.75000000  0.75000000  0.06862000
   0.75010176  0.63683015  0.29807891
   0.74998528  0.50002344  0.12125498
   0.50006393  0.73226862  0.25148201
   0.39214934  0.25000000  0.01612382
   0.10785066  0.25000000  0.01612382
   0.39214934  0.75000000  0.01612382
   0.10785066  0.75000000  0.01612382
   0.89214934  0.25000000  0.01612382
   0.60785066  0.25000000  0.01612382
   0.89214934  0.75000000  0.01612382
   0.60785066  0.75000000  0.01612382
Direct configuration=   220
   0.00000888  1.00001461  0.19625835
   0.25000000  0.25000000  0.06862000
   0.25008462  0.36310570  0.29811814
   0.25004445  1.00002613  0.13029006
   0.00006009  0.26779280  0.25150318
   0.00005100  0.49998595  0.17913768
   0.25000000  0.75000000  0.06862000
   0.25006990  0.63687636  0.29811529
   0.25001481  0.50000983  0.12130003
   0.00006859  0.73208680  0.25149809
   0.49998801  0.00000845  0.19625810
   0.75000000  0.25000000  0.06862000
   0.75010477  0.36307330  0.29813841
   0.75005012 -0.00001496  0.13030338
   0.50007978  0.26785414  0.25149979
   0.50003337  0.49995017  0.17911197
   0.75000000  0.75000000  0.06862000
   0.75008490  0.63679839  0.29811161
   0.75009861  0.49997858  0.12130178
   0.50010108  0.73215087  0.25151513
   0.39214934  0.25000000  0.01612382
   0.10785066  0.25000000  0.01612382
   0.39214934  0.75000000  0.01612382
   0.10785066  0.75000000  0.01612382
   0.89214934  0.25000000  0.01612382
   0.60785066  0.25000000  0.01612382
   0.89214934  0.75000000  0.01612382
   0.60785066  0.75000000  0.01612382
Direct configuration=   230
   0.00006777  0.99993944  0.19629837
   0.25000000  0.25000000  0.06862000
   0.25004521  0.36304277  0.29815276
   0.25000688  0.99997126  0.13027506
   0.00004698  0.26767814  0.25160293
   0.00001706  0.49996787  0.17913629
   0.25000000  0.75000000  0.06862000
   0.25004444  0.63686669  0.29814594
   0.25005094  0.49997217  0.12128578
   0.00002137  0.73228456  0.25159856
   0.50008281 -0.00001536  0.19630892
   0.75000000  0.25000000  0.06862000
   0.75001834  0.36304631  0.29814300
   0.75000776  0.00001897  0.13026729
   0.50003731  0.26763942  0.25159961
   0.50004582  0.50001341  0.17915031
   0.75000000  0.75000000  0.06862000
   0.75002865  0.63690840  0.29816727
   0.74998652  0.50000364  0.12128052
   0.50001694  0.73228286  0.25160313
   0.39214934  0.25000000  0.01612382
   0.10785066  0.25000000  0.01612382
   0.39214934  0.75000000  0.01612382
   0.10785066  0.75000000  0.01612382
   0.89214934  0.25000000  0.01612382
   0.60785066  0.25000000  0.01612382
   0.89214934  0.75000000  0.01612382
   0.60785066  0.75000000  0.01612382
Direct configuration=   240
  -0.00000168  1.00001151  0.19629008
   0.25000000  0.25000000  0.06862000
   0.24998609  0.36312244  0.29821403
   0.25004302  1.00000179  0.13030832
  -0.00000492  0.26778596  0.25156195
   0.00001219  0.49999665  0.17918088
   0.25000000  0.75000000  0.06862000
   0.24998372  0.63681122  0.29821948
   0.24997370  0.50002173  0.12133527
   0.00001372  0.73215380  0.25157735
   0.50000395 -0.00004033  0.19627688
   0.75000000  0.25000000  0.06862000
   0.75001706  0.36315390  0.29820945
   0.75003804 -0.00004331  0.13030343
   0.50000688  0.26782157  0.25156957
   0.49999829  0.49996833  0.17917972
   0.75000000  0.75000000  0.06862000
   0.75000825  0.63682844  0.29821353
   0.75001374  0.49999470  0.12133988
   0.50001372  0.73214183  0.25157061
   0.39214934  0.25000000  0.01612382
   0.10785066  0.25000000  0.01612382
   0.39214934  0.75000000  0.01612382
   0.10785066  0.75000000  0.01612382
   0.89214934  0.25000000  0.01612382
   0.60785066  0.25000000  0.01612382
   0.89214934  0.75000000  0.01612382
   0.60785066  0.75000000  0.01612382
Direct configuration=   250
  -0.00000285  0.99998564  0.19629887
   0.25000000  0.25000000  0.06862000
   0.24999342  0.36309355  0.29816933
   0.24996526  0.99999825  0.13026539
  -0.00001615  0.26773044  0.25160091
  -0.00002295  0.50000391  0.17915374
   0.25000000  0.75000000  0.06862000
   0.25000612  0.63689437  0.29817621
   0.25000612  0.49997619  0.12129315
  -0.00001314  0.73229261  0.25160142
   0.49997991  0.00001639  0.19630947
   0.75000000  0.25000000  0.06862000
   0.74997023  0.36307547  0.29817855
   0.74997356  0.00003165  0.13027525
   0.49997751  0.26767577  0.25159771
   0.49996996  0.49999162  0.17914613
   0.75000000  0.75000000  0.06862000
   0.74997507  0.63686547  0.29816349
   0.74998692  0.49999717  0.12129063
   0.49997714  0.73228045  0.25159803
   0.39214934  0.25000000  0.01612382
   0.10785066  0.25000000  0.01612382
   0.39214934  0.75000000  0.01612382
   0.10785066  0.75000000  0.01612382
   0.89214934  0.25000000  0.01612382
   0.60785066  0.25000000  0.01612382
   0.89214934  0.75000000  0.01612382
   0.60785066  0.75000000  0.01612382
Direct configuration=   260
  -0.00004576  1.00001406  0.19627844
   0.25000000  0.25000000  0.06862000
   0.24996835  0.36312667  0.29815163
   0.24998254  1.00000221  0.13030509
  -0.00002080  0.26778660  0.25154676
  -0.00001244  0.49999389  0.17914320
   0.25000000  0.75000000  0.06862000
   0.24996021  0.63689120  0.29814200
   0.24997278  0.50001963  0.12130787
  -0.00003379  0.73218645  0.25154266
   0.49996145 -0.00001659  0.19627058
   0.75000000  0.25000000  0.06862000
   0.74997604  0.36310738  0.29814537
   0.74997183 -0.00001773  0.13030258
   0.49997005  0.26783120  0.25154860
   0.50000002  0.50001436  0.17915257
   0.75000000  0.75000000  0.06862000
   0.74997934  0.63689570  0.29815101
   0.74997965  0.50000448  0.12130973
   0.49997360  0.73219810  0.25154448
   0.39214934  0.25000000  0.01612382
   0.10785066  0.25000000  0.01612382
   0.39214934  0.75000000  0.01612382
   0.10785066  0.75000000  0.01612382
   0.89214934  0.25000000  0.01612382
   0.60785066  0.25000000  0.01612382
   0.89214934  0.75000000  0.01612382
   0.60785066  0.75000000  0.01612382
Direct configuration=   270
  -0.00002203  0.99998354  0.19625902
   0.25000000  0.25000000  0.06862000
   0.24996716  0.36313802  0.29813606
   0.24998491  0.99999688  0.13025123
  -0.00003879  0.26775390  0.25154345
  -0.00002571  0.49999925  0.17911830
   0.25000000  0.75000000  0.06862000
   0.24996389  0.63687637  0.29813682
   0.24999766  0.49998566  0.12128141
  -0.00003221  0.73227148  0.25153961
   0.49998402  0.00002694  0.19626333
   0.75000000  0.25000000  0.06862000
   0.74997485  0.36316779  0.29813531
   0.74999690  0.00000748  0.13024569
   0.49997637  0.26773664  0.25153956
   0.49996485  0.49999289  0.17911115
   0.75000000  0.75000000  0.06862000
   0.74996437  0.63688542  0.29814156
   0.74999675  0.49999539  0.12127975
   0.49997337  0.73227723  0.25154597
   0.39214934  0.25000000  0.01612382
   0.10785066  0.25000000  0.01612382
   0.39214934  0.75000000  0.01612382
   0.10785066  0.75000000  0.01612382
   0.89214934  0.25000000  0.01612382
   0.60785066  0.25000000  0.01612382
   0.89214934  0.75000000  0.01612382
   0.60785066  0.75000000  0.01612382
Direct configuration=   280
  -0.00000176  1.00002615  0.19625519
   0.25000000  0.25000000  0.06862000
   0.24998207  0.36313152  0.29812662
   0.25000035  1.00000774  0.13027972
  -0.00001602  0.26777779  0.25153877
  -0.00001588  0.50001336  0.17913776
   0.25000000  0.75000000  0.06862000