fcc C                                   
   1.0046981694066102     
     2.514500    0.000000    0.000000
     1.257250    2.177621    0.000000
     1.257250    0.725874    2.053081
  C/253f7b50bb8d
               2
Direct
  0.000000  0.000000  0.000000
  0.250000  0.250000  0.250000

   40   40   40
  15.396      15.746      16.683      17.900      18.991      19.582      19.455      18.604      17.210      15.536    
  13.823      12.224      10.806      9.6064      8.6229      7.8318      7.2076      6.7328      6.3980      6.1986    
  6.1324      6.1986      6.3980      6.7328      7.2076      7.8318      8.6229      9.6064      10.806      12.224    
  13.823      15.536      17.210      18.604      19.455      19.582      18.991      17.900      16.683      15.746    
  15.746      16.438      17.603      18.866      19.815      20.134      19.703      18.612      17.093      15.409    
  13.766      12.268      10.970      9.8901      9.0124      8.3101      7.7618      7.3553      7.0859      6.9515    
  6.9515      7.0859      7.3553      7.7617      8.3101      9.0124      9.8901      10.970      12.268      13.766    
  15.409      17.093      18.612      19.703      20.134      19.815      18.866      17.603      16.438      15.746    
  16.683      17.603      18.804      19.894      20.510      20.440      19.675      18.383      16.811      15.190    
  13.667      12.314      11.168      10.228      9.4664      8.8601      8.3937      8.0611      7.8614      7.7948    
  7.8614      8.0611      8.3937      8.8601      9.4664      10.228      11.168      12.314      13.667      15.190    
  16.811      18.383      19.675      20.440      20.510      19.894      18.804      17.603      16.683      16.339    
  17.900      18.866      19.894      20.629      20.807      20.336      19.303      17.912      16.389      14.905    
  13.553      12.387      11.418      10.627      9.9880      9.4811      9.0995      8.8432      8.7142      8.7142    
  8.8432      9.0995      9.4812      9.9880      10.627      11.418      12.387      13.553      14.905      16.389    
  17.912      19.303      20.336      20.807      20.629      19.894      18.866      17.900      17.320      17.320    
  18.991      19.815      20.510      20.807      20.560      19.783      18.616      17.257      15.881      14.594    
  13.462      12.511      11.730      11.090      10.571      10.162      9.8636      9.6816      9.6204      9.6816    
  9.8636      10.162      10.571      11.090      11.730      12.511      13.462      14.594      15.881      17.257    
  18.616      19.783      20.560      20.807      20.510      19.815      18.991      18.339      18.092      18.339    
  19.582      20.134      20.440      20.336      19.783      18.858      17.714      16.507      15.348      14.309    
  13.427      12.700      12.100      11.603      11.194      10.875      10.655      10.542      10.542      10.655    
  10.875      11.194      11.603      12.100      12.700      13.427      14.309      15.348      16.507      17.714    
  18.858      19.783      20.336      20.440      20.134      19.582      19.019      18.669      18.669      19.019    
  19.455      19.703      19.675      19.303      18.616      17.714      16.723      15.745      14.852      14.090    
  13.462      12.944      12.507      12.133      11.821      11.583      11.433      11.382      11.433      11.583    
  11.821      12.133      12.507      12.944      13.462      14.090      14.852      15.745      16.723      17.714    
  18.616      19.303      19.675      19.703      19.455      19.080      18.759      18.634      18.759      19.080    
  18.604      18.612      18.383      17.912      17.257      16.507      15.745      15.039      14.438      13.950    
  13.553      13.215      12.913      12.642      12.414      12.249      12.161      12.161      12.249      12.414    
  12.642      12.913      13.215      13.553      13.950      14.438      15.039      15.745      16.507      17.257    
  17.912      18.383      18.612      18.604      18.433      18.216      18.071      18.071      18.216      18.433    
  17.210      17.093      16.811      16.389      15.881      15.348      14.852      14.438      14.118      13.873    
  13.667      13.473      13.279      13.096      12.941      12.837      12.800      12.837      12.941      13.096    
  13.279      13.473      13.667      13.873      14.118      14.438      14.852      15.348      15.881      16.389    
  16.811      17.093      17.210      17.184      17.077      16.968      16.924      16.968      17.077      17.184    
  15.536      15.409      15.190      14.905      14.594      14.309      14.090      13.950      13.873      13.823    
  13.766      13.684      13.579      13.467      13.372      13.317      13.317      13.372      13.467      13.579    
  13.684      13.766      13.823      13.873      13.950      14.090      14.309      14.594      14.905      15.190    
  15.409      15.536      15.566      15.524      15.456      15.408      15.408      15.456      15.524      15.566    
  13.823      13.766      13.667      13.553      13.462      13.427      13.462      13.553      13.667      13.766    
  13.823      13.830      13.796      13.740      13.692      13.673      13.692      13.740      13.796      13.830    
  13.823      13.766      13.667      13.553      13.462      13.427      13.462      13.553      13.667      13.766    
  13.823      13.830      13.796      13.740      13.692      13.673      13.692      13.740      13.796      13.830    
  12.224      12.268      12.314      12.387      12.511      12.700      12.944      13.215      13.473      13.684    
  13.830      13.907      13.927      13.916      13.901      13.901      13.916      13.927      13.907      13.830    
  13.684      13.473      13.215      12.944      12.700      12.511      12.387      12.314      12.268      12.224    
  12.165      12.092      12.016      11.953      11.917      11.917      11.953      12.016      12.092      12.165    
  10.806      10.970      11.168      11.418      11.730      12.100      12.507      12.913      13.279      13.579    
  13.796      13.927      13.990      14.012      14.016      14.012      13.990      13.927      13.796      13.579    
  13.279      12.913      12.507      12.100      11.730      11.418      11.168      10.970      10.806      10.663    
  10.532      10.416      10.323      10.263      10.242      10.263      10.323      10.416      10.532      10.663    
  9.6064      9.8901      10.228      10.627      11.090      11.603      12.133      12.642      13.096      13.467    
  13.740      13.916      14.012      14.052      14.052      14.012      13.916      13.740      13.467      13.096    
  12.642      12.133      11.603      11.090      10.627      10.228      9.8901      9.6064      9.3663      9.1629    
  8.9944      8.8629      8.7724      8.7262      8.7262      8.7724      8.8630      8.9944      9.1629      9.3663    
  8.6229      9.0124      9.4664      9.9880      10.571      11.194      11.821      12.414      12.941      13.372    
  13.692      13.901      14.016      14.052      14.016      13.901      13.692      13.372      12.941      12.414    
  11.821      11.194      10.571      9.9880      9.4664      9.0124      8.6229      8.2912      8.0117      7.7821    
  7.6025      7.4738      7.3966      7.3709      7.3966      7.4738      7.6025      7.7821      8.0117      8.2912    
  7.8318      8.3101      8.8601      9.4811      10.162      10.875      11.583      12.249      12.837      13.317    
  13.673      13.901      14.012      14.012      13.901      13.673      13.317      12.837      12.249      11.583    
  10.875      10.162      9.4812      8.8601      8.3101      7.8318      7.4206      7.0719      6.7830      6.5532    
  6.3824      6.2698      6.2140      6.2140      6.2698      6.3823      6.5532      6.7830      7.0719      7.4206    
  7.2076      7.7618      8.3937      9.0995      9.8636      10.655      11.433      12.161      12.800      13.317    
  13.692      13.916      13.990      13.916      13.692      13.317      12.800      12.161      11.433      10.655    
  9.8636      9.0995      8.3937      7.7618      7.2076      6.7283      6.3191      5.9769      5.7000      5.4877    
  5.3386      5.2505      5.2215      5.2505      5.3386      5.4877      5.7000      5.9769      6.3191      6.7283    
  6.7328      7.3553      8.0611      8.8432      9.6816      10.542      11.382      12.161      12.837      13.372    
  13.740      13.927      13.927      13.740      13.372      12.837      12.161      11.382      10.542      9.6816    
  8.8432      8.0611      7.3553      6.7328      6.1922      5.7289      5.3387      5.0189      4.7677      4.5830    
  4.4624      4.4030      4.4030      4.4624      4.5830      4.7677      5.0189      5.3387      5.7289      6.1922    
  6.3980      7.0859      7.8614      8.7142      9.6204      10.542      11.433      12.249      12.941      13.467    
  13.796      13.907      13.796      13.467      12.941      12.249      11.433      10.542      9.6204      8.7142    
  7.8614      7.0859      6.3980      5.7985      5.2835      4.8478      4.4876      4.1995      3.9809      3.8284    
  3.7387      3.7092      3.7387      3.8284      3.9809      4.1995      4.4876      4.8478      5.2835      5.7985    
  6.1986      6.9515      7.7948      8.7142      9.6816      10.655      11.583      12.414      13.096      13.579    
  13.830      13.830      13.579      13.096      12.414      11.583      10.655      9.6816      8.7142      7.7948    
  6.9515      6.1986      5.5397      4.9719      4.4902      4.0895      3.7651      3.5131      3.3294      3.2098    
  3.1511      3.1511      3.2098      3.3294      3.5131      3.7651      4.0895      4.4902      4.9719      5.5397    
  6.1324      6.9515      7.8614      8.8432      9.8636      10.875      11.821      12.642      13.279      13.684    
  13.823      13.684      13.279      12.642      11.821      10.875      9.8636      8.8432      7.8614      6.9515    
  6.1324      5.4113      4.7876      4.2568      3.8132      3.4511      3.1650      2.9498      2.8004      2.7128    
  2.6839      2.7128      2.8004      2.9498      3.1650      3.4511      3.8132      4.2568      4.7876      5.4113    
  6.1986      7.0859      8.0611      9.0995      10.162      11.194      12.133      12.913      13.473      13.766    
  13.766      13.473      12.913      12.133      11.194      10.162      9.0995      8.0611      7.0859      6.1986    
  5.4113      4.7266      4.1416      3.6508      3.2476      2.9252      2.6772      2.4974      2.3808      2.3234    
  2.3234      2.3808      2.4974      2.6772      2.9253      3.2476      3.6508      4.1416      4.7266      5.4113    
  6.3980      7.3553      8.3937      9.4812      10.571      11.603      12.507      13.215      13.667      13.823    
  13.667      13.215      12.507      11.603      10.571      9.4812      8.3937      7.3553      6.3980      5.5397    
  4.7876      4.1416      3.5973      3.1477      2.7852      2.5018      2.2900      2.1435      2.0575      2.0292    
  2.0575      2.1435      2.2900      2.5018      2.7852      3.1477      3.5973      4.1416      4.7876      5.5397    
  6.7328      7.7617      8.8601      9.9880      11.090      12.100      12.944      13.553      13.873      13.873    
  13.553      12.944      12.100      11.090      9.9880      8.8601      7.7618      6.7328      5.7985      4.9719    
  4.2568      3.6508      3.1477      2.7392      2.4161      2.1694      1.9913      1.8759      1.8191      1.8191    
  1.8759      1.9913      2.1694      2.4161      2.7392      3.1477      3.6508      4.2568      4.9719      5.7985    
  7.2076      8.3101      9.4664      10.627      11.730      12.700      13.462      13.950      14.118      13.950    
  13.462      12.700      11.730      10.627      9.4664      8.3101      7.2076      6.1922      5.2835      4.4902    
  3.8132      3.2476      2.7852      2.4161      2.1298      1.9171      1.7704      1.6843      1.6560      1.6843    
  1.7704      1.9171      2.1298      2.4161      2.7852      3.2476      3.8132      4.4902      5.2835      6.1922    
  7.8318      9.0124      10.228      11.418      12.511      13.427      14.090      14.438      14.438      14.090    
  13.427      12.511      11.418      10.228      9.0124      7.8318      6.7283      5.7289      4.8478      4.0895    
  3.4511      2.9252      2.5018      2.1694      1.9171      1.7358      1.6186      1.5610      1.5610      1.6186    
  1.7358      1.9171      2.1694      2.5018      2.9253      3.4511      4.0895      4.8478      5.7289      6.7283    
  8.6229      9.8901      11.168      12.387      13.462      14.309      14.852      15.039      14.852      14.309    
  13.462      12.387      11.168      9.8901      8.6229      7.4206      6.3191      5.3387      4.4876      3.7651    
  3.1650      2.6772      2.2900      1.9913      1.7704      1.6186      1.5298      1.5006      1.5298      1.6186    
  1.7704      1.9913      2.2900      2.6772      3.1650      3.7651      4.4876      5.3387      6.3191      7.4206    
  9.6064      10.970      12.314      13.553      14.594      15.348      15.745      15.745      15.348      14.594    
  13.553      12.314      10.970      9.6064      8.2912      7.0719      5.9769      5.0189      4.1995      3.5131    
  2.9498      2.4974      2.1435      1.8759      1.6843      1.5610      1.5006      1.5006      1.5610      1.6843    
  1.8759      2.1435      2.4974      2.9498      3.5131      4.1995      5.0189      5.9769      7.0719      8.2912    
  10.806      12.268      13.667      14.905      15.881      16.507      16.723      16.507      15.881      14.905    
  13.667      12.268      10.806      9.3663      8.0117      6.7830      5.7000      4.7677      3.9809      3.3294    
  2.8004      2.3808      2.0575      1.8191      1.6560      1.5610      1.5298      1.5610      1.6560      1.8191    
  2.0575      2.3808      2.8004      3.3294      3.9809      4.7677      5.7000      6.7830      8.0117      9.3663    
  12.224      13.766      15.190      16.389      17.257      17.714      17.714      17.257      16.389      15.190    
  13.766      12.224      10.663      9.1629      7.7821      6.5532      5.4877      4.5830      3.8284      3.2098    
  2.7128      2.3234      2.0292      1.8191      1.6843      1.6186      1.6186      1.6843      1.8191      2.0292    
  2.3234      2.7128      3.2098      3.8284      4.5830      5.4877      6.5532      7.7821      9.1629      10.663    
  13.823      15.409      16.811      17.912      18.616      18.858      18.616      17.912      16.811      15.409    
  13.823      12.165      10.532      8.9944      7.6025      6.3824      5.3386      4.4624      3.7387      3.1511    
  2.6839      2.3234      2.0575      1.8759      1.7704      1.7358      1.7704      1.8759      2.0575      2.3234    
  2.6839      3.1511      3.7387      4.4624      5.3386      6.3824      7.6025      8.9944      10.532      12.165    
  15.536      17.093      18.383      19.303      19.783      19.783      19.303      18.383      17.093      15.536    
  13.830      12.092      10.416      8.8629      7.4738      6.2698      5.2505      4.4030      3.7092      3.1511    
  2.7128      2.3808      2.1435      1.9913      1.9171      1.9171      1.9913      2.1435      2.3808      2.7128    
  3.1511      3.7092      4.4030      5.2505      6.2698      7.4738      8.8630      10.416      12.092      13.830    
  17.210      18.612      19.675      20.336      20.560      20.336      19.675      18.612      17.210      15.566    
  13.796      12.016      10.323      8.7724      7.3966      6.2140      5.2215      4.4030      3.7387      3.2098    
  2.8004      2.4974      2.2900      2.1694      2.1298      2.1694      2.2900      2.4974      2.8004      3.2098    
  3.7387      4.4030      5.2215      6.2140      7.3966      8.7724      10.323      12.016      13.796      15.566    
  18.604      19.703      20.440      20.807      20.807      20.440      19.703      18.604      17.184      15.524    
  13.740      11.953      10.263      8.7262      7.3709      6.2140      5.2505      4.4624      3.8284      3.3294    
  2.9498      2.6772      2.5018      2.4161      2.4161      2.5018      2.6772      2.9498      3.3294      3.8284    
  4.4624      5.2505      6.2140      7.3709      8.7262      10.263      11.953      13.740      15.524      17.184    
  19.455      20.134      20.510      20.629      20.510      20.134      19.455      18.433      17.077      15.456    
  13.692      11.917      10.242      8.7262      7.3966      6.2698      5.3386      4.5830      3.9809      3.5131    
  3.1650      2.9253      2.7852      2.7392      2.7852      2.9253      3.1650      3.5131      3.9809      4.5830    
  5.3386      6.2698      7.3966      8.7262      10.242      11.917      13.692      15.456      17.077      18.433    
  19.582      19.815      19.894      19.894      19.815      19.582      19.080      18.216      16.968      15.408    
  13.673      11.917      10.263      8.7724      7.4738      6.3823      5.4877      4.7677      4.1995      3.7651    
  3.4511      3.2476      3.1477      3.1477      3.2476      3.4511      3.7651      4.1995      4.7677      5.4877    
  6.3824      7.4738      8.7724      10.263      11.917      13.673      15.408      16.968      18.216      19.080    
  18.991      18.866      18.804      18.866      18.991      19.019      18.759      18.071      16.924      15.408    
  13.692      11.953      10.323      8.8630      7.6025      6.5532      5.7000      5.0189      4.4876      4.0895    
  3.8132      3.6508      3.5973      3.6508      3.8132      4.0895      4.4876      5.0189      5.7000      6.5532    
  7.6025      8.8630      10.323      11.953      13.692      15.408      16.924      18.071      18.759      19.019    
  17.900      17.603      17.603      17.900      18.339      18.669      18.634      18.071      16.968      15.456    
  13.740      12.016      10.416      8.9944      7.7821      6.7830      5.9769      5.3387      4.8478      4.4902    
  4.2568      4.1416      4.1416      4.2568      4.4902      4.8478      5.3387      5.9769      6.7830      7.7821    
  8.9944      10.416      12.016      13.740      15.456      16.968      18.071      18.634      18.669      18.339    
  16.683      16.438      16.683      17.320      18.092      18.669      18.759      18.216      17.077      15.524    
  13.796      12.092      10.532      9.1629      8.0117      7.0719      6.3191      5.7289      5.2835      4.9719    
  4.7876      4.7266      4.7876      4.9719      5.2835      5.7289      6.3191      7.0719      8.0117      9.1629    
  10.532      12.092      13.796      15.524      17.077      18.216      18.759      18.669      18.092      17.320    
  15.746      15.746      16.339      17.320      18.339      19.019      19.080      18.433      17.184      15.566    
  13.830      12.165      10.663      9.3663      8.2912      7.4206      6.7283      6.1922      5.7985      5.5397    
  5.4113      5.4113      5.5397      5.7985      6.1922      6.7283      7.4206      8.2912      9.3663      10.663    
  12.165      13.830      15.566      17.184      18.433      19.080      19.019      18.339      17.320      16.339    
  15.746      16.438      17.603      18.866      19.815      20.134      19.703      18.612      17.093      15.409    
  13.766      12.268      10.970      9.8901      9.0124      8.3101      7.7618      7.3553      7.0859      6.9515    
  6.9515      7.0859      7.3553      7.7617      8.3101      9.0124      9.8901      10.970      12.268      13.766    
  15.409      17.093      18.612      19.703      20.134      19.815      18.866      17.603      16.438      15.746    
  16.438      17.415      18.699      19.882      20.586      20.582      19.857      18.577      17.000      15.363    
  13.823      12.452      11.292      10.339      9.5689      8.9558      8.4840      8.1476      7.9455      7.8780    
  7.9455      8.1476      8.4840      8.9558      9.5689      10.339      11.292      12.452      13.823      15.363    
  17.000      18.577      19.857      20.582      20.585      19.882      18.699      17.415      16.438      16.075    
  17.603      18.699      19.889      20.787      21.102      20.720      19.726      18.332      16.780      15.260    
  13.873      12.674      11.679      10.869      10.214      9.6951      9.3041      9.0411      8.9087      8.9087    
  9.0411      9.3041      9.6951      10.214      10.869      11.679      12.674      13.873      15.260      16.780    
  18.332      19.726      20.720      21.102      20.787      19.889      18.699      17.603      16.952      16.952    
  18.866      19.882      20.787      21.273      21.161      20.451      19.292      17.899      16.470      15.131    
  13.950      12.959      12.146      11.483      10.944      10.519      10.208      10.018      9.9541      10.018    
  10.208      10.519      10.944      11.483      12.146      12.959      13.950      15.131      16.470      17.899    
  19.292      20.451      21.161      21.273      20.787      19.882      18.866      18.081      17.788      18.081    
  19.815      20.586      21.102      21.161      20.698      19.794      18.617      17.349      16.125      15.023    
  14.090      13.322      12.691      12.168      11.737      11.398      11.163      11.042      11.042      11.163    
  11.398      11.737      12.168      12.691      13.322      14.090      15.023      16.125      17.349      18.617    
  19.794      20.698      21.161      21.102      20.586      19.815      19.073      18.623      18.623      19.073    
  20.134      20.582      20.720      20.451      19.794      18.864      17.811      16.763      15.802      14.982    
  14.309      13.756      13.290      12.888      12.550      12.291      12.126      12.070      12.126      12.291    
  12.550      12.888      13.290      13.756      14.309      14.982      15.802      16.763      17.811      18.864    
  19.794      20.451      20.720      20.582      20.134      19.570      19.113      18.939      19.113      19.570    
  19.703      19.857      19.726      19.292      18.617      17.811      16.983      16.211      15.554      15.023    
  14.594      14.228      13.896      13.596      13.340      13.152      13.052      13.052      13.152      13.340    
  13.596      13.896      14.228      14.594      15.023      15.554      16.211      16.983      17.811      18.617    
  19.292      19.726      19.857      19.703      19.369      19.012      18.786      18.786      19.012      19.369    
  18.612      18.577      18.332      17.899      17.349      16.763      16.211      15.751      15.399      15.131    
  14.905      14.686      14.463      14.246      14.059      13.932      13.886      13.932      14.059      14.246    
  14.463      14.686      14.905      15.131      15.399      15.751      16.211      16.763      17.349      17.899    
  18.332      18.577      18.612      18.472      18.249      18.054      17.978      18.054      18.249      18.472    
  17.093      17.000      16.780      16.470      16.125      15.802      15.554      15.399      15.316      15.260    
  15.190      15.085      14.944      14.791      14.659      14.583      14.583      14.659      14.791      14.944    
  15.085      15.190      15.260      15.316      15.399      15.554      15.802      16.125      16.470      16.780    
  17.000      17.093      17.058      16.938      16.799      16.708      16.708      16.799      16.938      17.058    
  15.409      15.363      15.260      15.131      15.023      14.982      15.023      15.131      15.260      15.363    
  15.409      15.385      15.303      15.197      15.110      15.076      15.110      15.197      15.303      15.385    
  15.409      15.363      15.260      15.131      15.023      14.982      15.023      15.131      15.260      15.363    
  15.409      15.385      15.303      15.197      15.110      15.076      15.110      15.197      15.303      15.385    
  13.766      13.823      13.873      13.950      14.090      14.309      14.594      14.905      15.190      15.409    
  15.536      15.566      15.524      15.456      15.408      15.408      15.456      15.524      15.566      15.536    
  15.409      15.190      14.905      14.594      14.309      14.090      13.950      13.873      13.823      13.766    
  13.684      13.579      13.467      13.372      13.317      13.317      13.372      13.467      13.579      13.684    
  12.268      12.452      12.674      12.959      13.322      13.756      14.228      14.686      15.085      15.385    
  15.566      15.634      15.627      15.593      15.577      15.593      15.627      15.634      15.566      15.385    
  15.085      14.686      14.228      13.756      13.322      12.959      12.674      12.452      12.268      12.100    
  11.938      11.789      11.666      11.585      11.557      11.585      11.666      11.789      11.938      12.100    
  10.970      11.292      11.679      12.146      12.691      13.290      13.896      14.463      14.944      15.303    
  15.524      15.627      15.652      15.649      15.649      15.652      15.627      15.524      15.303      14.944    
  14.463      13.896      13.290      12.691      12.146      11.679      11.292      10.970      10.697      10.462    
  10.261      10.099      9.9841      9.9248      9.9248      9.9841      10.099      10.261      10.462      10.697    
  9.8901      10.339      10.869      11.483      12.168      12.888      13.596      14.246      14.791      15.197    
  15.456      15.593      15.649      15.663      15.649      15.593      15.456      15.197      14.791      14.246    
  13.596      12.888      12.168      11.483      10.869      10.339      9.8901      9.5107      9.1907      8.9251    
  8.7138      8.5598      8.4661      8.4347      8.4661      8.5598      8.7138      8.9251      9.1907      9.5107    
  9.0124      9.5689      10.214      10.944      11.737      12.550      13.340      14.059      14.659      15.110    
  15.408      15.577      15.649      15.649      15.577      15.408      15.110      14.659      14.059      13.340    
  12.550      11.737      10.944      10.214      9.5689      9.0124      8.5380      8.1374      7.8047      7.5381    
  7.3382      7.2052      7.1390      7.1390      7.2052      7.3382      7.5381      7.8047      8.1373      8.5380    
  8.3101      8.9558      9.6951      10.519      11.398      12.291      13.152      13.932      14.583      15.076    
  15.408      15.593      15.652      15.593      15.408      15.076      14.583      13.932      13.152      12.291    
  11.398      10.519      9.6951      8.9558      8.3101      7.7553      7.2839      6.8899      6.5702      6.3237    
  6.1496      6.0464      6.0122      6.0464      6.1496      6.3237      6.5702      6.8899      7.2839      7.7553    
  7.7618      8.4840      9.3041      10.208      11.163      12.126      13.052      13.886      14.583      15.110    
  15.456      15.627      15.627      15.456      15.110      14.583      13.886      13.052      12.126      11.163    
  10.208      9.3041      8.4840      7.7618      7.1374      6.6046      6.1566      5.7887      5.4987      5.2848    
  5.1446      5.0755      5.0755      5.1446      5.2848      5.4987      5.7887      6.1566      6.6046      7.1374    
  7.3553      8.1476      9.0411      10.018      11.042      12.070      13.052      13.932      14.659      15.197    
  15.524      15.634      15.524      15.197      14.659      13.932      13.052      12.070      11.042      10.018    
  9.0411      8.1476      7.3553      6.6674      6.0785      5.5812      5.1696      4.8395      4.5882      4.4126    
  4.3092      4.2751      4.3092      4.4126      4.5882      4.8395      5.1696      5.5812      6.0785      6.6674    
  7.0859      7.9455      8.9087      9.9541      11.042      12.126      13.152      14.059      14.791      15.303    
  15.566      15.566      15.303      14.791      14.059      13.152      12.126      11.042      9.9541      8.9087    
  7.9455      7.0859      6.3360      5.6923      5.1471      4.6933      4.3251      4.0383      3.8288      3.6925    
  3.6255      3.6255      3.6925      3.8288      4.0383      4.3251      4.6933      5.1471      5.6923      6.3360    
  6.9515      7.8780      8.9087      10.018      11.163      12.291      13.340      14.246      14.944      15.385    
  15.536      15.385      14.944      14.246      13.340      12.291      11.163      10.018      8.9087      7.8780    
  6.9515      6.1388      5.4385      4.8437      4.3466      3.9400      3.6180      3.3755      3.2071      3.1084    
  3.0759      3.1084      3.2071      3.3755      3.6180      3.9400      4.3466      4.8437      5.4385      6.1388    
  6.9515      7.9455      9.0411      10.208      11.398      12.550      13.596      14.463      15.085      15.409    
  15.409      15.085      14.463      13.596      12.550      11.398      10.208      9.0411      7.9455      6.9515    
  6.0733      5.3127      4.6644      4.1205      3.6731      3.3146      3.0384      2.8383      2.7085      2.6449    
  2.6449      2.7085      2.8383      3.0384      3.3146      3.6731      4.1205      4.6644      5.3127      6.0733    
  7.0859      8.1476      9.3041      10.519      11.737      12.888      13.896      14.686      15.190      15.363    