fcc C                                   
   1.0046981694066102     
     2.514500    0.000000    0.000000
     1.257250    2.177621    0.000000
     1.257250    0.725874    2.053081
  C 
               2
Direct
  0.000000  0.000000  0.000000
  0.250000  0.250000  0.250000

   40   40   40
 0.15394370326E+02 0.15743968305E+02 0.16679950003E+02 0.17896499304E+02 0.18987893373E+02
 0.19580040449E+02 0.19453714826E+02 0.18604295880E+02 0.17210676955E+02 0.15536750511E+02
 0.13823690837E+02 0.12224696234E+02 0.10806462584E+02 0.96061811570E+01 0.86225277779E+01
 0.78313447068E+01 0.72071301815E+01 0.67323192453E+01 0.63975004537E+01 0.61981164332E+01
 0.61319033256E+01 0.61981140446E+01 0.63974975368E+01 0.67323177350E+01 0.72071303378E+01
 0.78313450697E+01 0.86225267447E+01 0.96061786796E+01 0.10806460490E+02 0.12224696744E+02
 0.13823694220E+02 0.15536753835E+02 0.17210675506E+02 0.18604286725E+02 0.19453699688E+02
 0.19580025125E+02 0.18987883863E+02 0.17896497779E+02 0.16679953752E+02 0.15743972132E+02
 0.15743968305E+02 0.16435655976E+02 0.17600027430E+02 0.18863107069E+02 0.19812596687E+02
 0.20132688801E+02 0.19702494623E+02 0.18612182273E+02 0.17093727103E+02 0.15410650806E+02
 0.13766504741E+02 0.12268868708E+02 0.10969974670E+02 0.98898454603E+01 0.90120488360E+01
 0.83097072299E+01 0.77613059740E+01 0.73548747111E+01 0.70853973873E+01 0.69510230598E+01
 0.69510313943E+01 0.70854064113E+01 0.73548644935E+01 0.77612884842E+01 0.83097077333E+01
 0.90120632403E+01 0.98898461452E+01 0.10969956379E+02 0.12268858150E+02 0.13766517544E+02
 0.15410666689E+02 0.17093722542E+02 0.18612164362E+02 0.19702481788E+02 0.20132677345E+02
 0.19812574884E+02 0.18863090899E+02 0.17600047010E+02 0.16435703755E+02 0.15743994347E+02
 0.16679950003E+02 0.17600027430E+02 0.18801020629E+02 0.19890830311E+02 0.20507983547E+02
 0.20439142746E+02 0.19675563767E+02 0.18383684708E+02 0.16812378827E+02 0.15191292127E+02
 0.13668393358E+02 0.12314187653E+02 0.11168333055E+02 0.10227338240E+02 0.94660781654E+01
 0.88597680067E+01 0.83932866466E+01 0.80607227633E+01 0.78610105399E+01 0.77943880647E+01
 0.78610077508E+01 0.80607185840E+01 0.83932831249E+01 0.88597662313E+01 0.94660771025E+01
 0.10227335770E+02 0.11168328510E+02 0.12314182964E+02 0.13668391410E+02 0.15191294123E+02
 0.16812383071E+02 0.18383687445E+02 0.19675561461E+02 0.20439134703E+02 0.20507973088E+02
 0.19890822877E+02 0.18801019668E+02 0.17600031567E+02 0.16679954241E+02 0.16336812801E+02
 0.17896499304E+02 0.18863107069E+02 0.19890830311E+02 0.20626314505E+02 0.20805816099E+02
 0.20336377551E+02 0.19304558322E+02 0.17913868030E+02 0.16390362494E+02 0.14906212527E+02
 0.13553897629E+02 0.12387006913E+02 0.11418201813E+02 0.10627396281E+02 0.99878385855E+01
 0.94809302409E+01 0.90993108958E+01 0.88429220996E+01 0.87139555237E+01 0.87139470225E+01
 0.88429101601E+01 0.90993137448E+01 0.94809407951E+01 0.99878367200E+01 0.10627382439E+02
 0.11418195738E+02 0.12387014207E+02 0.13553900820E+02 0.14906201728E+02 0.16390353661E+02
 0.17913877538E+02 0.19304576097E+02 0.20336383266E+02 0.20805810213E+02 0.20626311858E+02
 0.19890829391E+02 0.18863090869E+02 0.17896469162E+02 0.17316774714E+02 0.17316790762E+02
 0.18987893373E+02 0.19812596687E+02 0.20507983547E+02 0.20805816099E+02 0.20560138070E+02
 0.19783637200E+02 0.18617942396E+02 0.17259391637E+02 0.15882336842E+02 0.14595620792E+02
 0.13462791515E+02 0.12511819020E+02 0.11730087290E+02 0.11090510577E+02 0.10570931776E+02
 0.10161684200E+02 0.98635125450E+01 0.96815462144E+01 0.96203303499E+01 0.96815472850E+01
 0.98635137828E+01 0.10161684710E+02 0.10570931326E+02 0.11090509509E+02 0.11730086165E+02
 0.12511818169E+02 0.13462790563E+02 0.14595618922E+02 0.15882334110E+02 0.17259389707E+02
 0.18617943178E+02 0.19783640686E+02 0.20560141955E+02 0.20805817364E+02 0.20507980183E+02
 0.19812588749E+02 0.18987883604E+02 0.18335772019E+02 0.18089373262E+02 0.18335778861E+02
 0.19580040449E+02 0.20132688801E+02 0.20439142746E+02 0.20336377551E+02 0.19783637200E+02
 0.18860143756E+02 0.17716437594E+02 0.16508841150E+02 0.15350073418E+02 0.14309985902E+02
 0.13428235767E+02 0.12700425903E+02 0.12100494695E+02 0.11602820382E+02 0.11194314074E+02
 0.10875549031E+02 0.10654975709E+02 0.10541950054E+02 0.10541956099E+02 0.10654984894E+02
 0.10875548793E+02 0.11194307723E+02 0.11602820399E+02 0.12100501923E+02 0.12700429123E+02
 0.13428231105E+02 0.14309982666E+02 0.15350076789E+02 0.16508841633E+02 0.17716425997E+02
 0.18860127675E+02 0.19783631814E+02 0.20336384708E+02 0.20439150200E+02 0.20132688666E+02
 0.19580037441E+02 0.19016182272E+02 0.18666209731E+02 0.18666208738E+02 0.19016182276E+02
 0.19453714826E+02 0.19702494623E+02 0.19675563767E+02 0.19304558322E+02 0.18617942396E+02
 0.17716437594E+02 0.16724928094E+02 0.15746794461E+02 0.14853183009E+02 0.14090868794E+02
 0.13462791723E+02 0.12944722103E+02 0.12507654886E+02 0.12133691672E+02 0.11821677027E+02
 0.11583500897E+02 0.11433583155E+02 0.11382373539E+02 0.11433585505E+02 0.11583503837E+02
 0.11821678822E+02 0.12133692188E+02 0.12507655426E+02 0.12944723910E+02 0.13462794612E+02
 0.14090870926E+02 0.14853182018E+02 0.15746789314E+02 0.16724920285E+02 0.17716430358E+02
 0.18617938305E+02 0.19304557364E+02 0.19675563681E+02 0.19702493021E+02 0.19453711087E+02
 0.19078862557E+02 0.18757203854E+02 0.18631873828E+02 0.18757206879E+02 0.19078867047E+02
 0.18604295880E+02 0.18612182273E+02 0.18383684708E+02 0.17913868030E+02 0.17259391637E+02
 0.16508841150E+02 0.15746794461E+02 0.15040439179E+02 0.14439026067E+02 0.13950838972E+02
 0.13553897709E+02 0.13216105481E+02 0.12913546347E+02 0.12642427272E+02 0.12415007222E+02
 0.12249367833E+02 0.12161863047E+02 0.12161861655E+02 0.12249366662E+02 0.12415009993E+02
 0.12642431646E+02 0.12913547506E+02 0.13216104298E+02 0.13553899420E+02 0.13950843849E+02
 0.14439027624E+02 0.15040434099E+02 0.15746789161E+02 0.16508843717E+02 0.17259399812E+02
 0.17913870584E+02 0.18383675014E+02 0.18612166453E+02 0.18604285925E+02 0.18432871115E+02
 0.18215383848E+02 0.18070000241E+02 0.18069996326E+02 0.18215376536E+02 0.18432869804E+02
 0.17210676955E+02 0.17093727103E+02 0.16812378827E+02 0.16390362494E+02 0.15882336842E+02
 0.15350073418E+02 0.14853183009E+02 0.14439026067E+02 0.14118951248E+02 0.13873525671E+02
 0.13668393314E+02 0.13473521788E+02 0.13279986209E+02 0.13096333739E+02 0.12941657839E+02
 0.12837704485E+02 0.12801017994E+02 0.12837703742E+02 0.12941657737E+02 0.13096335220E+02
 0.13279988781E+02 0.13473524470E+02 0.13668395745E+02 0.13873527955E+02 0.14118953420E+02
 0.14439028137E+02 0.14853185059E+02 0.15350075263E+02 0.15882337889E+02 0.16390362286E+02
 0.16812377633E+02 0.17093725894E+02 0.17210676912E+02 0.17184584001E+02 0.17077346955E+02
 0.16968534593E+02 0.16923828239E+02 0.16968532241E+02 0.17077343966E+02 0.17184582221E+02
 0.15536750511E+02 0.15410650806E+02 0.15191292127E+02 0.14906212527E+02 0.14595620792E+02
 0.14309985902E+02 0.14090868794E+02 0.13950838972E+02 0.13873525671E+02 0.13823949831E+02
 0.13766504907E+02 0.13684835116E+02 0.13580070243E+02 0.13467962869E+02 0.13372777842E+02
 0.13318055946E+02 0.13318055528E+02 0.13372777065E+02 0.13467962948E+02 0.13580072300E+02
 0.13684839004E+02 0.13766509048E+02 0.13823952983E+02 0.13873528741E+02 0.13950843678E+02
 0.14090873967E+02 0.14309987061E+02 0.14595615712E+02 0.14906206509E+02 0.15191294518E+02
 0.15410664776E+02 0.15536768011E+02 0.15566603453E+02 0.15525246368E+02 0.15457159507E+02
 0.15408569746E+02 0.15408575250E+02 0.15457170448E+02 0.15525250993E+02 0.15566594683E+02
 0.13823690837E+02 0.13766504741E+02 0.13668393358E+02 0.13553897629E+02 0.13462791515E+02
 0.13428235767E+02 0.13462791723E+02 0.13553897709E+02 0.13668393314E+02 0.13766504907E+02
 0.13823691190E+02 0.13831173807E+02 0.13796421680E+02 0.13741033126E+02 0.13692522703E+02
 0.13673462403E+02 0.13692522327E+02 0.13741033376E+02 0.13796423396E+02 0.13831176936E+02
 0.13823695074E+02 0.13766508750E+02 0.13668396451E+02 0.13553900025E+02 0.13462793777E+02
 0.13428238077E+02 0.13462793950E+02 0.13553900026E+02 0.13668396277E+02 0.13766508745E+02
 0.13823695243E+02 0.13831176945E+02 0.13796423255E+02 0.13741033429E+02 0.13692522564E+02
 0.13673462458E+02 0.13692522548E+02 0.13741033080E+02 0.13796421738E+02 0.13831173644E+02
 0.12224696234E+02 0.12268868708E+02 0.12314187653E+02 0.12387006913E+02 0.12511819020E+02
 0.12700425903E+02 0.12944722103E+02 0.13216105481E+02 0.13473521788E+02 0.13684835116E+02
 0.13831173807E+02 0.13907990535E+02 0.13928041027E+02 0.13916919654E+02 0.13902422835E+02
 0.13902423205E+02 0.13916920682E+02 0.13928042434E+02 0.13907992133E+02 0.13831175956E+02
 0.13684838031E+02 0.13473524243E+02 0.13216105694E+02 0.12944720858E+02 0.12700427176E+02
 0.12511825412E+02 0.12387014999E+02 0.12314190145E+02 0.12268862053E+02 0.12224684950E+02
 0.12165672904E+02 0.12092895895E+02 0.12017132892E+02 0.11953881383E+02 0.11917839348E+02
 0.11917834970E+02 0.11953870944E+02 0.12017123132E+02 0.12092893658E+02 0.12165680089E+02
 0.10806462584E+02 0.10969974670E+02 0.11168333055E+02 0.11418201813E+02 0.11730087290E+02
 0.12100494695E+02 0.12507654886E+02 0.12913546347E+02 0.13279986209E+02 0.13580070243E+02
 0.13796421680E+02 0.13928041027E+02 0.13991373595E+02 0.14013024277E+02 0.14017035815E+02
 0.14013024794E+02 0.13991374333E+02 0.13928041409E+02 0.13796421517E+02 0.13580070431E+02
 0.13279987994E+02 0.12913549588E+02 0.12507657552E+02 0.12100494426E+02 0.11730083313E+02
 0.11418195446E+02 0.11168326873E+02 0.10969971107E+02 0.10806462539E+02 0.10663076133E+02
 0.10532484240E+02 0.10416328049E+02 0.10323360056E+02 0.10263117419E+02 0.10242251703E+02
 0.10263118501E+02 0.10323361070E+02 0.10416327601E+02 0.10532482098E+02 0.10663073893E+02
 0.96061811570E+01 0.98898454603E+01 0.10227338240E+02 0.10627396281E+02 0.11090510577E+02
 0.11602820382E+02 0.12133691672E+02 0.12642427272E+02 0.13096333739E+02 0.13467962869E+02
 0.13741033126E+02 0.13916919654E+02 0.14013024277E+02 0.14052874933E+02 0.14052874590E+02
 0.14013023387E+02 0.13916918224E+02 0.13741030914E+02 0.13467960617E+02 0.13096333998E+02
 0.12642432222E+02 0.12133699143E+02 0.11602823288E+02 0.11090502685E+02 0.10627379672E+02
 0.10227323794E+02 0.98898438194E+01 0.96061924718E+01 0.93661365031E+01 0.91628056998E+01
 0.89943829087E+01 0.88630350746E+01 0.87725806498E+01 0.87264193566E+01 0.87264222273E+01
 0.87725890652E+01 0.88630462273E+01 0.89943895712E+01 0.91628012360E+01 0.93661229601E+01
 0.86225277779E+01 0.90120488360E+01 0.94660781654E+01 0.99878385855E+01 0.10570931776E+02
 0.11194314074E+02 0.11821677027E+02 0.12415007222E+02 0.12941657839E+02 0.13372777842E+02
 0.13692522703E+02 0.13902422835E+02 0.14017035815E+02 0.14052874590E+02 0.14017033932E+02
 0.13902419548E+02 0.13692518961E+02 0.13372774908E+02 0.12941656903E+02 0.12415008860E+02
 0.11821680780E+02 0.11194318421E+02 0.10570934699E+02 0.99878386547E+01 0.94660755745E+01
 0.90120454532E+01 0.86225257748E+01 0.82908122628E+01 0.80113933229E+01 0.77818563442E+01
 0.76023077445E+01 0.74737031682E+01 0.73965887145E+01 0.73709245478E+01 0.73965918207E+01
 0.74737075969E+01 0.76023110948E+01 0.77818573198E+01 0.80113927319E+01 0.82908122461E+01
 0.78313447068E+01 0.83097072299E+01 0.88597680067E+01 0.94809302409E+01 0.10161684200E+02
 0.10875549031E+02 0.11583500897E+02 0.12249367833E+02 0.12837704485E+02 0.13318055946E+02
 0.13673462403E+02 0.13902423205E+02 0.14013024794E+02 0.14013023387E+02 0.13902419548E+02
 0.13673458278E+02 0.13318053581E+02 0.12837704461E+02 0.12249368402E+02 0.11583500866E+02
 0.10875550923E+02 0.10161692207E+02 0.94809438674E+01 0.88597794859E+01 0.83097077813E+01
 0.78313337655E+01 0.74201656861E+01 0.70714648487E+01 0.67825907998E+01 0.65528545303E+01
 0.63821062579E+01 0.62695835018E+01 0.62138897502E+01 0.62138916687E+01 0.62695860874E+01
 0.63821041883E+01 0.65528479065E+01 0.67825867603E+01 0.70714703411E+01 0.74201789895E+01
 0.72071301815E+01 0.77613059740E+01 0.83932866466E+01 0.90993108958E+01 0.98635125450E+01
 0.10654975709E+02 0.11433583155E+02 0.12161863047E+02 0.12801017994E+02 0.13318055528E+02
 0.13692522327E+02 0.13916920682E+02 0.13991374333E+02 0.13916918224E+02 0.13692518961E+02
 0.13318053581E+02 0.12801019243E+02 0.12161867552E+02 0.11433589138E+02 0.10654980659E+02
 0.98635147670E+01 0.90993104097E+01 0.83932849478E+01 0.77613049494E+01 0.72071309774E+01
 0.67277945840E+01 0.63186805469E+01 0.59764857255E+01 0.56996847916E+01 0.54874325865E+01
 0.53383621460E+01 0.52503398249E+01 0.52212888345E+01 0.52503410367E+01 0.53383634416E+01
 0.54874326722E+01 0.56996831266E+01 0.59764826984E+01 0.63186771505E+01 0.67277920212E+01
 0.67323192453E+01 0.73548747111E+01 0.80607227633E+01 0.88429220996E+01 0.96815462144E+01
 0.10541950054E+02 0.11382373539E+02 0.12161861655E+02 0.12837703742E+02 0.13372777065E+02
 0.13741033376E+02 0.13928042434E+02 0.13928041409E+02 0.13741030914E+02 0.13372774908E+02
 0.12837704461E+02 0.12161867552E+02 0.11382384068E+02 0.10541959612E+02 0.96815465247E+01
 0.88429097796E+01 0.80607049615E+01 0.73548647318E+01 0.67323245578E+01 0.61917183030E+01
 0.57284749206E+01 0.53383398087E+01 0.50185772074E+01 0.47673912132E+01 0.45828192811E+01
 0.44622334020E+01 0.44028526233E+01 0.44028512198E+01 0.44622308241E+01 0.45828190758E+01
 0.47673950438E+01 0.50185813274E+01 0.53383369620E+01 0.57284622689E+01 0.61917031236E+01
 0.63975004537E+01 0.70853973873E+01 0.78610105399E+01 0.87139555237E+01 0.96203303499E+01
 0.10541956099E+02 0.11433585505E+02 0.12249366662E+02 0.12941657737E+02 0.13467962948E+02
 0.13796423396E+02 0.13907992133E+02 0.13796421517E+02 0.13467960617E+02 0.12941656903E+02
 0.12249368402E+02 0.11433589138E+02 0.10541959612E+02 0.96203317933E+01 0.87139541718E+01
 0.78610070635E+01 0.70853932276E+01 0.63974969073E+01 0.57980734328E+01 0.52830765392E+01
 0.48475006396E+01 0.44872617865E+01 0.41992762198E+01 0.39806803204E+01 0.38282509944E+01
 0.37386046878E+01 0.37090635795E+01 0.37386016821E+01 0.38282467011E+01 0.39806769921E+01
 0.41992751182E+01 0.44872625771E+01 0.48475022335E+01 0.52830784066E+01 0.57980759349E+01
 0.61981164332E+01 0.69510230598E+01 0.77943880647E+01 0.87139470225E+01 0.96815472850E+01
 0.10654984894E+02 0.11583503837E+02 0.12415009993E+02 0.13096335220E+02 0.13580072300E+02
 0.13831176936E+02 0.13831175956E+02 0.13580070431E+02 0.13096333998E+02 0.12415008860E+02
 0.11583500866E+02 0.10654980659E+02 0.96815465247E+01 0.87139541718E+01 0.77944007029E+01
 0.69510317672E+01 0.61981130853E+01 0.55391921458E+01 0.49715076916E+01 0.44899018560E+01
 0.40891896507E+01 0.37648859802E+01 0.35129220475E+01 0.33292175653E+01 0.32097136913E+01
 0.31509655923E+01 0.31509645209E+01 0.32097113202E+01 0.33292149839E+01 0.35129190523E+01
 0.37648828986E+01 0.40891899681E+01 0.44899100653E+01 0.49715230201E+01 0.55392062144E+01
 0.61319033256E+01 0.69510313943E+01 0.78610077508E+01 0.88429101601E+01 0.98635137828E+01
 0.10875548793E+02 0.11821678822E+02 0.12642431646E+02 0.13279988781E+02 0.13684839004E+02
 0.13823695074E+02 0.13684838031E+02 0.13279987994E+02 0.12642432222E+02 0.11821680780E+02
 0.10875550923E+02 0.98635147670E+01 0.88429097796E+01 0.78610070635E+01 0.69510317672E+01
 0.61319052223E+01 0.54108088445E+01 0.47871581533E+01 0.42564446470E+01 0.38129158542E+01
 0.34508495756E+01 0.31648214060E+01 0.29496178815E+01 0.28003117249E+01 0.27126774069E+01
 0.26838119203E+01 0.27126770012E+01 0.28003118887E+01 0.29496197596E+01 0.31648252540E+01
 0.34508542764E+01 0.38129194967E+01 0.42564457907E+01 0.47871567927E+01 0.54108063456E+01
 0.61981140446E+01 0.70854064113E+01 0.80607185840E+01 0.90993137448E+01 0.10161684710E+02
 0.11194307723E+02 0.12133692188E+02 0.12913547506E+02 0.13473524470E+02 0.13766509048E+02
 0.13766508750E+02 0.13473524243E+02 0.12913549588E+02 0.12133699143E+02 0.11194318421E+02
 0.10161692207E+02 0.90993104097E+01 0.80607049615E+01 0.70853932276E+01 0.61981130853E+01
 0.54108088445E+01 0.47261559073E+01 0.41412563948E+01 0.36505156117E+01 0.32473647559E+01
 0.29250642691E+01 0.26770638408E+01 0.24973100709E+01 0.23806563687E+01 0.23233297250E+01
 0.23233302151E+01 0.23806575919E+01 0.24973120352E+01 0.26770676396E+01 0.29250706934E+01
 0.32473713091E+01 0.36505161659E+01 0.41412463509E+01 0.47261387806E+01 0.54107959402E+01
 0.63974975368E+01 0.73548644935E+01 0.83932831249E+01 0.94809407951E+01 0.10570931326E+02
 0.11602820399E+02 0.12507655426E+02 0.13216104298E+02 0.13668395745E+02 0.13823952983E+02
 0.13668396451E+02 0.13216105694E+02 0.12507657552E+02 0.11602823288E+02 0.10570934699E+02
 0.94809438674E+01 0.83932849478E+01 0.73548647318E+01 0.63974969073E+01 0.55391921458E+01
 0.47871581533E+01 0.41412563948E+01 0.35969719703E+01 0.31474970036E+01 0.27850281556E+01
 0.25016133151E+01 0.22898244506E+01 0.21433426066E+01 0.20574085339E+01 0.20290925711E+01
 0.20574091924E+01 0.21433435879E+01 0.22898251336E+01 0.25016130247E+01 0.27850265265E+01
 0.31474942288E+01 0.35969687839E+01 0.41412538043E+01 0.47871569469E+01 0.55391923300E+01
 0.67323177350E+01 0.77612884842E+01 0.88597662313E+01 0.99878367200E+01 0.11090509509E+02
 0.12100501923E+02 0.12944723910E+02 0.13553899420E+02 0.13873527955E+02 0.13873528741E+02
 0.13553900025E+02 0.12944720858E+02 0.12100494426E+02 0.11090502685E+02 0.99878386547E+01
 0.88597794859E+01 0.77613049494E+01 0.67323245578E+01 0.57980734328E+01 0.49715076916E+01
 0.42564446470E+01 0.36505156117E+01 0.31474970036E+01 0.27390231203E+01 0.24158985068E+01
 0.21691929974E+01 0.19911386441E+01 0.18757349489E+01 0.18190078378E+01 0.18190079956E+01
 0.18757351345E+01 0.19911382263E+01 0.21691910749E+01 0.24158938136E+01 0.27390154710E+01
 0.31474899543E+01 0.36505158594E+01 0.42564556459E+01 0.49715234643E+01 0.57980815893E+01
 0.72071303378E+01 0.83097077333E+01 0.94660771025E+01 0.10627382439E+02 0.11730086165E+02
 0.12700429123E+02 0.13462794612E+02 0.13950843849E+02 0.14118953420E+02 0.13950843678E+02
 0.13462793777E+02 0.12700427176E+02 0.11730083313E+02 0.10627379672E+02 0.94660755745E+01
 0.83097077813E+01 0.72071309774E+01 0.61917183030E+01 0.52830765392E+01 0.44899018560E+01
 0.38129158542E+01 0.32473647559E+01 0.27850281556E+01 0.24158985068E+01 0.21296607114E+01
 0.19169466677E+01 0.17702238978E+01 0.16842090054E+01 0.16558641058E+01 0.16842099372E+01
 0.17702246312E+01 0.19169458873E+01 0.21296580919E+01 0.24158952083E+01 0.27850261815E+01
 0.32473655453E+01 0.38129191467E+01 0.44899058074E+01 0.52830791042E+01 0.61917187673E+01
 0.78313450697E+01 0.90120632403E+01 0.10227335770E+02 0.11418195738E+02 0.12511818169E+02
 0.13428231105E+02 0.14090870926E+02 0.14439027624E+02 0.14439028137E+02 0.14090873967E+02
 0.13428238077E+02 0.12511825412E+02 0.11418195446E+02 0.10227323794E+02 0.90120454532E+01
 0.78313337655E+01 0.67277945840E+01 0.57284749206E+01 0.48475006396E+01 0.40891896507E+01
 0.34508495756E+01 0.29250642691E+01 0.25016133151E+01 0.21691929974E+01 0.19169466677E+01
 0.17356566242E+01 0.16184318870E+01 0.15608684951E+01 0.15608691670E+01 0.16184335047E+01
 0.17356579307E+01 0.19169463988E+01 0.21691920023E+01 0.25016148977E+01 0.29250703274E+01
 0.34508563159E+01 0.40891896423E+01 0.48474911166E+01 0.57284630435E+01 0.67277919924E+01
 0.86225267447E+01 0.98898461452E+01 0.11168328510E+02 0.12387014207E+02 0.13462790563E+02
 0.14309982666E+02 0.14853182018E+02 0.15040434099E+02 0.14853185059E+02 0.14309987061E+02
 0.13462793950E+02 0.12387014999E+02 0.11168326873E+02 0.98898438194E+01 0.86225257748E+01
 0.74201656861E+01 0.63186805469E+01 0.53383398087E+01 0.44872617865E+01 0.37648859802E+01
 0.31648214060E+01 0.26770638408E+01 0.22898244506E+01 0.19911386441E+01 0.17702238978E+01
 0.16184318870E+01 0.15296871595E+01 0.15004835165E+01 0.15296876096E+01 0.16184324486E+01
 0.17702243900E+01 0.19911394455E+01 0.22898262662E+01 0.26770669426E+01 0.31648250455E+01
 0.37648886279E+01 0.44872621718E+01 0.53383379822E+01 0.63186780309E+01 0.74201644466E+01
 0.96061786796E+01 0.10969956379E+02 0.12314182964E+02 0.13553900820E+02 0.14595618922E+02
 0.15350076789E+02 0.15746789314E+02 0.15746789161E+02 0.15350075263E+02 0.14595615712E+02
 0.13553900026E+02 0.12314190145E+02 0.10969971107E+02 0.96061924718E+01 0.82908122628E+01
 0.70714648487E+01 0.59764857255E+01 0.50185772074E+01 0.41992762198E+01 0.35129220475E+01
 0.29496178815E+01 0.24973100709E+01 0.21433426066E+01 0.18757349489E+01 0.16842090054E+01
 0.15608684951E+01 0.15004835165E+01 0.15004832544E+01 0.15608676425E+01 0.16842079569E+01
 0.18757350245E+01 0.21433446739E+01 0.24973126194E+01 0.29496178699E+01 0.35129188503E+01
 0.41992739417E+01 0.50185809867E+01 0.59764949309E+01 0.70714715487E+01 0.82908084413E+01
 0.10806460490E+02 0.12268858150E+02 0.13668391410E+02 0.14906201728E+02 0.15882334110E+02
 0.16508841633E+02 0.16724920285E+02 0.16508843717E+02 0.15882337889E+02 0.14906206509E+02
 0.13668396277E+02 0.12268862053E+02 0.10806462539E+02 0.93661365031E+01 0.80113933229E+01
 0.67825907998E+01 0.56996847916E+01 0.47673912132E+01 0.39806803204E+01 0.33292175653E+01
 0.28003117249E+01 0.23806563687E+01 0.20574085339E+01 0.18190078378E+01 0.16558641058E+01
 0.15608691670E+01 0.15296876096E+01 0.15608676425E+01 0.16558623143E+01 0.18190072125E+01
 0.20574094440E+01 0.23806577466E+01 0.28003118604E+01 0.33292154671E+01 0.39806765874E+01
 0.47673876624E+01 0.56996830655E+01 0.67825910966E+01 0.80113943260E+01 0.93661364693E+01
 0.12224696744E+02 0.13766517544E+02 0.15191294123E+02 0.16390353661E+02 0.17259389707E+02
 0.17716425997E+02 0.17716430358E+02 0.17259399812E+02 0.16390362286E+02 0.15191294518E+02
 0.13766508745E+02 0.12224684950E+02 0.10663076133E+02 0.91628056998E+01 0.77818563442E+01
 0.65528545303E+01 0.54874325865E+01 0.45828192811E+01 0.38282509944E+01 0.32097136913E+01
 0.27126774069E+01 0.23233297250E+01 0.20290925711E+01 0.18190079956E+01 0.16842099372E+01
 0.16184335047E+01 0.16184324486E+01 0.16842079569E+01 0.18190072125E+01 0.20290934465E+01
 0.23233305017E+01 0.27126763711E+01 0.32097113996E+01 0.38282493448E+01 0.45828183655E+01
 0.54874297511E+01 0.65528478140E+01 0.77818484882E+01 0.91628030552E+01 0.10663082466E+02
 0.13823694220E+02 0.15410666689E+02 0.16812383071E+02 0.17913877538E+02 0.18617943178E+02
 0.18860127675E+02 0.18617938305E+02 0.17913870584E+02 0.16812377633E+02 0.15410664776E+02
 0.13823695243E+02 0.12165672904E+02 0.10532484240E+02 0.89943829087E+01 0.76023077445E+01
 0.63821062579E+01 0.53383621460E+01 0.44622334020E+01 0.37386046878E+01 0.31509655923E+01
 0.26838119203E+01 0.23233302151E+01 0.20574091924E+01 0.18757351345E+01 0.17702246312E+01
 0.17356579307E+01 0.17702243900E+01 0.18757350245E+01 0.20574094440E+01 0.23233305017E+01
 0.26838115646E+01 0.31509642387E+01 0.37386027928E+01 0.44622320620E+01 0.53383623587E+01
 0.63821081464E+01 0.76023103058E+01 0.89943845609E+01 0.10532483957E+02 0.12165671215E+02
 0.15536753835E+02 0.17093722542E+02 0.18383687445E+02 0.19304576097E+02 0.19783640686E+02
 0.19783631814E+02 0.19304557364E+02 0.18383675014E+02 0.17093725894E+02 0.15536768011E+02
 0.13831176945E+02 0.12092895895E+02 0.10416328049E+02 0.88630350746E+01 0.74737031682E+01
 0.62695835018E+01 0.52503398249E+01 0.44028526233E+01 0.37090635795E+01 0.31509645209E+01
 0.27126770012E+01 0.23806575919E+01 0.21433435879E+01 0.19911382263E+01 0.19169458873E+01
 0.19169463988E+01 0.19911394455E+01 0.21433446739E+01 0.23806577466E+01 0.27126763711E+01
 0.31509642387E+01 0.37090643761E+01 0.44028537454E+01 0.52503403390E+01 0.62695847348E+01
 0.74737082778E+01 0.88630446216E+01 0.10416336552E+02 0.12092895251E+02 0.13831165151E+02
 0.17210675506E+02 0.18612164362E+02 0.19675561461E+02 0.20336383266E+02 0.20560141955E+02
 0.20336384708E+02 0.19675563681E+02 0.18612166453E+02 0.17210676912E+02 0.15566603453E+02
 0.13796423255E+02 0.12017132892E+02 0.10323360056E+02 0.87725806498E+01 0.73965887145E+01
 0.62138897502E+01 0.52212888345E+01 0.44028512198E+01 0.37386016821E+01 0.32097113202E+01
 0.28003118887E+01 0.24973120352E+01 0.22898251336E+01 0.21691910749E+01 0.21296580919E+01
 0.21691920023E+01 0.22898262662E+01 0.24973126194E+01 0.28003118604E+01 0.32097113996E+01
 0.37386027928E+01 0.44028537454E+01 0.52212922758E+01 0.62138929953E+01 0.73965907210E+01
 0.87725810807E+01 0.10323359404E+02 0.12017131975E+02 0.13796422500E+02 0.15566602623E+02
 0.18604286725E+02 0.19702481788E+02 0.20439134703E+02 0.20805810213E+02 0.20805817364E+02
 0.20439150200E+02 0.19702493021E+02 0.18604285925E+02 0.17184584001E+02 0.15525246368E+02
 0.13741033429E+02 0.11953881383E+02 0.10263117419E+02 0.87264193566E+01 0.73709245478E+01
 0.62138916687E+01 0.52503410367E+01 0.44622308241E+01 0.38282467011E+01 0.33292149839E+01
 0.29496197596E+01 0.26770676396E+01 0.25016130247E+01 0.24158938136E+01 0.24158952083E+01
 0.25016148977E+01 0.26770669426E+01 0.29496178699E+01 0.33292154671E+01 0.38282493448E+01
 0.44622320620E+01 0.52503403390E+01 0.62138929953E+01 0.73709293752E+01 0.87264220807E+01
 0.10263111842E+02 0.11953870288E+02 0.13741027114E+02 0.15525250579E+02 0.17184592407E+02
 0.19453699688E+02 0.20132677345E+02 0.20507973088E+02 0.20626311858E+02 0.20507980183E+02
 0.20132688666E+02 0.19453711087E+02 0.18432871115E+02 0.17077346955E+02 0.15457159507E+02
 0.13692522564E+02 0.11917839348E+02 0.10242251703E+02 0.87264222273E+01 0.73965918207E+01
 0.62695860874E+01 0.53383634416E+01 0.45828190758E+01 0.39806769921E+01 0.35129190523E+01
 0.31648252540E+01 0.29250706934E+01 0.27850265265E+01 0.27390154710E+01 0.27850261815E+01
 0.29250703274E+01 0.31648250455E+01 0.35129188503E+01 0.39806765874E+01 0.45828183655E+01
 0.53383623587E+01 0.62695847348E+01 0.73965907210E+01 0.87264220807E+01 0.10242252728E+02
 0.11917840985E+02 0.13692523720E+02 0.15457158794E+02 0.17077342886E+02 0.18432862868E+02
 0.19580025125E+02 0.19812574884E+02 0.19890822877E+02 0.19890829391E+02 0.19812588749E+02
 0.19580037441E+02 0.19078862557E+02 0.18215383848E+02 0.16968534593E+02 0.15408569746E+02
 0.13673462458E+02 0.11917834970E+02 0.10263118501E+02 0.87725890652E+01 0.74737075969E+01
 0.63821041883E+01 0.54874326722E+01 0.47673950438E+01 0.41992751182E+01 0.37648828986E+01
 0.34508542764E+01 0.32473713091E+01 0.31474942288E+01 0.31474899543E+01 0.32473655453E+01
 0.34508563159E+01 0.37648886279E+01 0.41992739417E+01 0.47673876624E+01 0.54874297511E+01
 0.63821081464E+01 0.74737082778E+01 0.87725810807E+01 0.10263111842E+02 0.11917840985E+02
 0.13673476877E+02 0.15408578539E+02 0.16968532132E+02 0.18215375818E+02 0.19078853283E+02
 0.18987883863E+02 0.18863090899E+02 0.18801019668E+02 0.18863090869E+02 0.18987883604E+02
 0.19016182272E+02 0.18757203854E+02 0.18070000241E+02 0.16923828239E+02 0.15408575250E+02
 0.13692522548E+02 0.11953870944E+02 0.10323361070E+02 0.88630462273E+01 0.76023110948E+01
 0.65528479065E+01 0.56996831266E+01 0.50185813274E+01 0.44872625771E+01 0.40891899681E+01
 0.38129194967E+01 0.36505161659E+01 0.35969687839E+01 0.36505158594E+01 0.38129191467E+01
 0.40891896423E+01 0.44872621718E+01 0.50185809867E+01 0.56996830655E+01 0.65528478140E+01
 0.76023103058E+01 0.88630446216E+01 0.10323359404E+02 0.11953870288E+02 0.13692523720E+02
 0.15408578539E+02 0.16923833023E+02 0.18070004944E+02 0.18757206962E+02 0.19016183532E+02
 0.17896497779E+02 0.17600047010E+02 0.17600031567E+02 0.17896469162E+02 0.18335772019E+02
 0.18666209731E+02 0.18631873828E+02 0.18069996326E+02 0.16968532241E+02 0.15457170448E+02
 0.13741033080E+02 0.12017123132E+02 0.10416327601E+02 0.89943895712E+01 0.77818573198E+01
 0.67825867603E+01 0.59764826984E+01 0.53383369620E+01 0.48475022335E+01 0.44899100653E+01
 0.42564457907E+01 0.41412463509E+01 0.41412538043E+01 0.42564556459E+01 0.44899058074E+01
 0.48474911166E+01 0.53383379822E+01 0.59764949309E+01 0.67825910966E+01 0.77818484882E+01
 0.89943845609E+01 0.10416336552E+02 0.12017131975E+02 0.13741027114E+02 0.15457158794E+02
 0.16968532132E+02 0.18070004944E+02 0.18631876367E+02 0.18666209093E+02 0.18335786348E+02
 0.16679953752E+02 0.16435703755E+02 0.16679954241E+02 0.17316774714E+02 0.18089373262E+02
 0.18666208738E+02 0.18757206879E+02 0.18215376536E+02 0.17077343966E+02 0.15525250993E+02
 0.13796421738E+02 0.12092893658E+02 0.10532482098E+02 0.91628012360E+01 0.80113927319E+01
 0.70714703411E+01 0.63186771505E+01 0.57284622689E+01 0.52830784066E+01 0.49715230201E+01
 0.47871567927E+01 0.47261387806E+01 0.47871569469E+01 0.49715234643E+01 0.52830791042E+01
 0.57284630435E+01 0.63186780309E+01 0.70714715487E+01 0.80113943260E+01 0.91628030552E+01
 0.10532483957E+02 0.12092895251E+02 0.13796422500E+02 0.15525250579E+02 0.17077342886E+02
 0.18215375818E+02 0.18757206962E+02 0.18666209093E+02 0.18089373197E+02 0.17316774185E+02
 0.15743972132E+02 0.15743994347E+02 0.16336812801E+02 0.17316790762E+02 0.18335778861E+02
 0.19016182276E+02 0.19078867047E+02 0.18432869804E+02 0.17184582221E+02 0.15566594683E+02
 0.13831173644E+02 0.12165680089E+02 0.10663073893E+02 0.93661229601E+01 0.82908122461E+01
 0.74201789895E+01 0.67277920212E+01 0.61917031236E+01 0.57980759349E+01 0.55392062144E+01
 0.54108063456E+01 0.54107959402E+01 0.55391923300E+01 0.57980815893E+01 0.61917187673E+01
 0.67277919924E+01 0.74201644466E+01 0.82908084413E+01 0.93661364693E+01 0.10663082466E+02
 0.12165671215E+02 0.13831165151E+02 0.15566602623E+02 0.17184592407E+02 0.18432862868E+02
 0.19078853283E+02 0.19016183532E+02 0.18335786348E+02 0.17316774185E+02 0.16336772714E+02
 0.15743968412E+02 0.16435656139E+02 0.17600027550E+02 0.18863107147E+02 0.19812596793E+02
 0.20132688917E+02 0.19702494671E+02 0.18612182266E+02 0.17093727108E+02 0.15410650798E+02
 0.13766504648E+02 0.12268868562E+02 0.10969974573E+02 0.98898454171E+01 0.90120487844E+01
 0.83097071867E+01 0.77613060034E+01 0.73548747788E+01 0.70853974029E+01 0.69510230338E+01
 0.69510314039E+01 0.70854064440E+01 0.73548644776E+01 0.77612884395E+01 0.83097077362E+01
 0.90120632725E+01 0.98898461290E+01 0.10969956332E+02 0.12268858151E+02 0.13766517577E+02