fcc C                                   
   1.0046981694066102     
     2.514500    0.000000    0.000000
     1.257250    2.177621    0.000000
     1.257250    0.725874    2.053081
  C/253f7b50bb8d
               2
Direct
  0.000000  0.000000  0.000000
  0.250000  0.250000  0.250000

   40   40   40
 0.15396161566E+02 0.15746013010E+02 0.16682564318E+02 0.17899565904E+02 0.18990894752E+02
 0.19582338939E+02 0.19454888569E+02 0.18604326022E+02 0.17209905510E+02 0.15535679745E+02
 0.13822762561E+02 0.12224154357E+02 0.10806335969E+02 0.96063772412E+01 0.86229127450E+01
 0.78318038541E+01 0.72076016031E+01 0.67327923485E+01 0.63979890866E+01 0.61986285820E+01
 0.61324275586E+01 0.61986283628E+01 0.63979889086E+01 0.67327923971E+01 0.72076018027E+01
 0.78318040320E+01 0.86229128175E+01 0.96063771864E+01 0.10806335787E+02 0.12224154158E+02
 0.13822762541E+02 0.15535679917E+02 0.17209905596E+02 0.18604325811E+02 0.19454888304E+02
 0.19582339088E+02 0.18990895372E+02 0.17899566503E+02 0.16682564473E+02 0.15746012880E+02
 0.15746013010E+02 0.16438135707E+02 0.17603043406E+02 0.18866315657E+02 0.19815375637E+02
 0.20134466616E+02 0.19703032619E+02 0.18611655038E+02 0.17092593649E+02 0.15409427546E+02
 0.13765570754E+02 0.12268376357E+02 0.10969893642E+02 0.98900577061E+01 0.90124192977E+01
 0.83101369847E+01 0.77617517387E+01 0.73553348636E+01 0.70858815157E+01 0.69515280104E+01
 0.69515381411E+01 0.70858947678E+01 0.73553287666E+01 0.77617364353E+01 0.83101381244E+01
 0.90124348608E+01 0.98900615889E+01 0.10969879668E+02 0.12268368385E+02 0.13765582335E+02
 0.15409439587E+02 0.17092586937E+02 0.18611641159E+02 0.19703031131E+02 0.20134470186E+02
 0.19815366090E+02 0.18866303905E+02 0.17603059440E+02 0.16438176953E+02 0.15746035914E+02
 0.16682564318E+02 0.17603043406E+02 0.18804280578E+02 0.19893836867E+02 0.20510147844E+02
 0.20440086439E+02 0.19675293312E+02 0.18382558107E+02 0.16810918683E+02 0.15189968364E+02
 0.13667478542E+02 0.12313735235E+02 0.11168264009E+02 0.10227517977E+02 0.94663815929E+01
 0.88601177514E+01 0.83936560532E+01 0.80611133049E+01 0.78614241728E+01 0.77948132008E+01
 0.78614245066E+01 0.80611134606E+01 0.83936558803E+01 0.88601176719E+01 0.94663818382E+01
 0.10227518222E+02 0.11168263939E+02 0.12313734968E+02 0.13667478313E+02 0.15189968266E+02
 0.16810918861E+02 0.18382558674E+02 0.19675293858E+02 0.20440086150E+02 0.20510146478E+02
 0.19893835281E+02 0.18804279904E+02 0.17603043846E+02 0.16682565004E+02 0.16339238724E+02
 0.17899565904E+02 0.18866315657E+02 0.19893836867E+02 0.20628610045E+02 0.20806981344E+02
 0.20336295807E+02 0.19303466310E+02 0.17912236499E+02 0.16388694476E+02 0.14904868838E+02
 0.13553020356E+02 0.12386571118E+02 0.11418093736E+02 0.10627481703E+02 0.99880140026E+01
 0.94811417744E+01 0.90995436087E+01 0.88431755908E+01 0.87142243630E+01 0.87142165948E+01
 0.88431654003E+01 0.90995483072E+01 0.94811537559E+01 0.99880134486E+01 0.10627469826E+02
 0.11418090710E+02 0.12386582060E+02 0.13553026483E+02 0.14904858862E+02 0.16388683863E+02
 0.17912242592E+02 0.19303481037E+02 0.20336300660E+02 0.20806977326E+02 0.20628611145E+02
 0.19893840113E+02 0.18866302863E+02 0.17899537865E+02 0.17319656794E+02 0.17319672146E+02
 0.18990894752E+02 0.19815375637E+02 0.20510147844E+02 0.20806981344E+02 0.20560124953E+02
 0.19782571678E+02 0.18616206227E+02 0.17257463913E+02 0.15880618860E+02 0.14594325667E+02
 0.13461952423E+02 0.12511358151E+02 0.11729879721E+02 0.11090440867E+02 0.10570924575E+02
 0.10161705654E+02 0.98635532377E+01 0.96816017448E+01 0.96203914741E+01 0.96816017931E+01
 0.98635532111E+01 0.10161705585E+02 0.10570924601E+02 0.11090440975E+02 0.11729879874E+02
 0.12511358481E+02 0.13461952898E+02 0.14594325832E+02 0.15880618423E+02 0.17257463334E+02
 0.18616206155E+02 0.19782572046E+02 0.20560125244E+02 0.20806981465E+02 0.20510148005E+02
 0.19815375639E+02 0.18990894255E+02 0.18338774645E+02 0.18092340560E+02 0.18338775272E+02
 0.19582338939E+02 0.20134466616E+02 0.20440086439E+02 0.20336295807E+02 0.19782571678E+02
 0.18858372096E+02 0.17714368872E+02 0.16506864995E+02 0.15348439003E+02 0.14308775031E+02
 0.13427412892E+02 0.12699890986E+02 0.12100137193E+02 0.11602555130E+02 0.11194091958E+02
 0.10875348680E+02 0.10654788595E+02 0.10541769562E+02 0.10541774305E+02 0.10654794804E+02
 0.10875345762E+02 0.11194084547E+02 0.11602555370E+02 0.12100144499E+02 0.12699893222E+02
 0.13427406935E+02 0.14308772194E+02 0.15348445959E+02 0.16506871557E+02 0.17714362980E+02
 0.18858358290E+02 0.19782564468E+02 0.20336299759E+02 0.20440093733E+02 0.20134472188E+02
 0.19582346248E+02 0.19018725263E+02 0.18668815338E+02 0.18668810227E+02 0.19018715292E+02
 0.19454888569E+02 0.19703032619E+02 0.19675293312E+02 0.19303466310E+02 0.18616206227E+02
 0.17714368872E+02 0.16722859322E+02 0.15744968140E+02 0.14851706764E+02 0.14089744365E+02
 0.13461952630E+02 0.12944078264E+02 0.12507126393E+02 0.12133223237E+02 0.11821237151E+02
 0.11583074634E+02 0.11433163033E+02 0.11381954488E+02 0.11433163420E+02 0.11583074912E+02
 0.11821236989E+02 0.12133222833E+02 0.12507126133E+02 0.12944078299E+02 0.13461952892E+02
 0.14089744744E+02 0.14851707115E+02 0.15744968300E+02 0.16722859266E+02 0.17714368701E+02
 0.18616205913E+02 0.19303465678E+02 0.19675292501E+02 0.19703032334E+02 0.19454889497E+02
 0.19080441205E+02 0.18758973381E+02 0.18633693768E+02 0.18758971823E+02 0.19080439320E+02
 0.18604326022E+02 0.18611655038E+02 0.18382558107E+02 0.17912236499E+02 0.17257463913E+02
 0.16506864995E+02 0.15744968140E+02 0.15038866184E+02 0.14437728735E+02 0.13949781928E+02
 0.13553020435E+02 0.13215347905E+02 0.12912860296E+02 0.12641779888E+02 0.12414378052E+02
 0.12248744807E+02 0.12161240795E+02 0.12161239135E+02 0.12248742885E+02 0.12414379697E+02
 0.12641782795E+02 0.12912859585E+02 0.13215344424E+02 0.13553019658E+02 0.13949784749E+02
 0.14437729501E+02 0.15038862208E+02 0.15744965849E+02 0.16506871771E+02 0.17257476386E+02
 0.17912242440E+02 0.18382550403E+02 0.18611639911E+02 0.18604315922E+02 0.18433318775E+02
 0.18216082503E+02 0.18070808536E+02 0.18070804778E+02 0.18216075602E+02 0.18433317931E+02
 0.17209905510E+02 0.17092593649E+02 0.16810918683E+02 0.16388694476E+02 0.15880618860E+02
 0.15348439003E+02 0.14851706764E+02 0.14437728735E+02 0.14117814617E+02 0.13872516225E+02
 0.13667478497E+02 0.13472674062E+02 0.13279183774E+02 0.13095556392E+02 0.12940887972E+02
 0.12836932522E+02 0.12800244186E+02 0.12836932451E+02 0.12940888279E+02 0.13095556951E+02
 0.13279183815E+02 0.13472673385E+02 0.13667477957E+02 0.13872516618E+02 0.14117815664E+02
 0.14437729526E+02 0.14851706818E+02 0.15348438564E+02 0.15880618482E+02 0.16388694545E+02
 0.16810919080E+02 0.17092593761E+02 0.17209904813E+02 0.17184121725E+02 0.17077097526E+02
 0.16968399130E+02 0.16923728166E+02 0.16968399802E+02 0.17077098778E+02 0.17184123051E+02
 0.15535679745E+02 0.15409427546E+02 0.15189968364E+02 0.14904868838E+02 0.14594325667E+02
 0.14308775031E+02 0.14089744365E+02 0.13949781928E+02 0.13872516225E+02 0.13822978790E+02
 0.13765570919E+02 0.13683938375E+02 0.13579201358E+02 0.13467103386E+02 0.13371912132E+02
 0.13317181546E+02 0.13317181581E+02 0.13371912099E+02 0.13467103167E+02 0.13579201171E+02
 0.13683938390E+02 0.13765570893E+02 0.13822978795E+02 0.13872517428E+02 0.13949785092E+02
 0.14089746996E+02 0.14308772100E+02 0.14594315679E+02 0.14904858515E+02 0.15189968014E+02
 0.15409440081E+02 0.15535695908E+02 0.15565684362E+02 0.15524440513E+02 0.15456415928E+02
 0.15407850292E+02 0.15407857034E+02 0.15456429895E+02 0.15524448420E+02 0.15565677914E+02
 0.13822762561E+02 0.13765570754E+02 0.13667478542E+02 0.13553020356E+02 0.13461952423E+02
 0.13427412892E+02 0.13461952630E+02 0.13553020435E+02 0.13667478497E+02 0.13765570919E+02
 0.13822762912E+02 0.13830262529E+02 0.13795517939E+02 0.13740118989E+02 0.13691590118E+02
 0.13672520836E+02 0.13691589564E+02 0.13740118504E+02 0.13795517876E+02 0.13830262616E+02
 0.13822762779E+02 0.13765570503E+02 0.13667477990E+02 0.13553020259E+02 0.13461953275E+02
 0.13427414230E+02 0.13461953447E+02 0.13553020260E+02 0.13667477817E+02 0.13765570498E+02
 0.13822762947E+02 0.13830262625E+02 0.13795517735E+02 0.13740118556E+02 0.13691589799E+02
 0.13672520890E+02 0.13691589963E+02 0.13740118944E+02 0.13795517997E+02 0.13830262366E+02
 0.12224154357E+02 0.12268376357E+02 0.12313735235E+02 0.12386571118E+02 0.12511358151E+02
 0.12699890986E+02 0.12944078264E+02 0.13215347905E+02 0.13472674062E+02 0.13683938375E+02
 0.13830262529E+02 0.13907074004E+02 0.13927108146E+02 0.13915959144E+02 0.13901440077E+02
 0.13901439820E+02 0.13915958625E+02 0.13927107755E+02 0.13907073886E+02 0.13830262691E+02
 0.13683938398E+02 0.13472672663E+02 0.13215344346E+02 0.12944075036E+02 0.12699893219E+02
 0.12511367994E+02 0.12386583091E+02 0.12313739594E+02 0.12268368289E+02 0.12224139135E+02
 0.12165070951E+02 0.12092233127E+02 0.12016404416E+02 0.11953091860E+02 0.11917011487E+02
 0.11917006468E+02 0.11953080301E+02 0.12016394774E+02 0.12092233369E+02 0.12165082392E+02
 0.10806335969E+02 0.10969893642E+02 0.11168264009E+02 0.11418093736E+02 0.11729879721E+02
 0.12100137193E+02 0.12507126393E+02 0.12912860296E+02 0.13279183774E+02 0.13579201358E+02
 0.13795517939E+02 0.13927108146E+02 0.13990405114E+02 0.14012021889E+02 0.14016018669E+02
 0.14012021131E+02 0.13990404373E+02 0.13927107949E+02 0.13795518119E+02 0.13579201616E+02
 0.13279184022E+02 0.12912860344E+02 0.12507125941E+02 0.12100136392E+02 0.11729879236E+02
 0.11418093999E+02 0.11168264750E+02 0.10969894323E+02 0.10806336330E+02 0.10662881349E+02
 0.10532208767E+02 0.10415964081E+02 0.10322910777E+02 0.10262604048E+02 0.10241713717E+02
 0.10262603775E+02 0.10322910561E+02 0.10415964104E+02 0.10532208870E+02 0.10662881291E+02
 0.96063772412E+01 0.98900577061E+01 0.10227517977E+02 0.10627481703E+02 0.11090440867E+02
 0.11602555130E+02 0.12133223237E+02 0.12641779888E+02 0.13095556392E+02 0.13467103386E+02
 0.13740118989E+02 0.13915959144E+02 0.14012021889E+02 0.14051845663E+02 0.14051845125E+02
 0.14012020865E+02 0.13915958504E+02 0.13740118729E+02 0.13467103302E+02 0.13095557435E+02
 0.12641783275E+02 0.12133227497E+02 0.11602555355E+02 0.11090433088E+02 0.10627468744E+02
 0.10227509356E+02 0.98900615353E+01 0.96063917436E+01 0.93662846319E+01 0.91628829920E+01
 0.89943774207E+01 0.88629435461E+01 0.87724145131E+01 0.87262085492E+01 0.87262103571E+01
 0.87724204960E+01 0.88629525187E+01 0.89943832354E+01 0.91628785504E+01 0.93662702703E+01
 0.86229127450E+01 0.90124192977E+01 0.94663815929E+01 0.99880140026E+01 0.10570924575E+02
 0.11194091958E+02 0.11821237151E+02 0.12414378052E+02 0.12940887972E+02 0.13371912132E+02
 0.13691590118E+02 0.13901440077E+02 0.14016018669E+02 0.14051845125E+02 0.14016017973E+02
 0.13901439099E+02 0.13691589366E+02 0.13371911849E+02 0.12940888050E+02 0.12414378276E+02
 0.11821237472E+02 0.11194092444E+02 0.10570925088E+02 0.99880140903E+01 0.94663809107E+01
 0.90124181278E+01 0.86229118723E+01 0.82911737450E+01 0.80117057559E+01 0.77821034093E+01
 0.76024797077E+01 0.74738012322E+01 0.73966305615E+01 0.73709441343E+01 0.73966305910E+01
 0.74738012092E+01 0.76024794362E+01 0.77821028061E+01 0.80117051694E+01 0.82911737845E+01
 0.78318038541E+01 0.83101369847E+01 0.88601177514E+01 0.94811417744E+01 0.10161705654E+02
 0.10875348680E+02 0.11583074634E+02 0.12248744807E+02 0.12836932522E+02 0.13317181546E+02
 0.13672520836E+02 0.13901439820E+02 0.14012021131E+02 0.14012020865E+02 0.13901439099E+02
 0.13672520142E+02 0.13317181456E+02 0.12836932308E+02 0.12248742420E+02 0.11583069847E+02
 0.10875345827E+02 0.10161710624E+02 0.94811546646E+01 0.88601299365E+01 0.83101379499E+01
 0.78317916324E+01 0.74206148124E+01 0.70718825126E+01 0.67829614703E+01 0.65531660154E+01
 0.63823523368E+01 0.62697704544E+01 0.62140401352E+01 0.62140402457E+01 0.62697687104E+01
 0.63823459754E+01 0.65531574999E+01 0.67829586607E+01 0.70718911663E+01 0.74206311014E+01
 0.72076016031E+01 0.77617517387E+01 0.83936560532E+01 0.90995436087E+01 0.98635532377E+01
 0.10654788595E+02 0.11433163033E+02 0.12161240795E+02 0.12800244186E+02 0.13317181581E+02
 0.13691589564E+02 0.13915958625E+02 0.13990404373E+02 0.13915958504E+02 0.13691589366E+02
 0.13317181456E+02 0.12800244278E+02 0.12161241015E+02 0.11433163059E+02 0.10654788234E+02
 0.98635527278E+01 0.90995434914E+01 0.83936566797E+01 0.77617528657E+01 0.72076024812E+01
 0.67282553554E+01 0.63191126104E+01 0.59768792059E+01 0.57000309714E+01 0.54877237112E+01
 0.53385974169E+01 0.52505317874E+01 0.52214638011E+01 0.52505316069E+01 0.53385971455E+01
 0.54877236731E+01 0.57000315364E+01 0.59768802824E+01 0.63191135138E+01 0.67282553856E+01
 0.67327923485E+01 0.73553348636E+01 0.80611133049E+01 0.88431755908E+01 0.96816017448E+01
 0.10541769562E+02 0.11381954488E+02 0.12161239135E+02 0.12836932451E+02 0.13371912099E+02
 0.13740118504E+02 0.13927107755E+02 0.13927107949E+02 0.13740118729E+02 0.13371911849E+02
 0.12836932308E+02 0.12161241015E+02 0.11381959348E+02 0.10541774295E+02 0.96816001069E+01
 0.88431647051E+01 0.80610992133E+01 0.73553289705E+01 0.67328005094E+01 0.61921696370E+01
 0.57288865112E+01 0.53387083901E+01 0.50189011737E+01 0.47676665891E+01 0.45830434952E+01
 0.44624124855E+01 0.44030050801E+01 0.44030045404E+01 0.44624122363E+01 0.45830464477E+01
 0.47676737211E+01 0.50189082159E+01 0.53387076731E+01 0.57288747202E+01 0.61921535399E+01
 0.63979890866E+01 0.70858815157E+01 0.78614241728E+01 0.87142243630E+01 0.96203914741E+01
 0.10541774305E+02 0.11433163420E+02 0.12248742885E+02 0.12940888279E+02 0.13467103167E+02
 0.13795517876E+02 0.13907073886E+02 0.13795518119E+02 0.13467103302E+02 0.12940888050E+02
 0.12248742420E+02 0.11433163059E+02 0.10541774295E+02 0.96203917916E+01 0.87142246864E+01
 0.78614240830E+01 0.70858809458E+01 0.63979885441E+01 0.57985258618E+01 0.52834727806E+01
 0.48478413416E+01 0.44875527609E+01 0.41995202185E+01 0.39808771075E+01 0.38284034895E+01
 0.37387249338E+01 0.37091730671E+01 0.37387252106E+01 0.38284039162E+01 0.39808774802E+01
 0.41995202647E+01 0.44875522460E+01 0.48478403810E+01 0.52834719564E+01 0.57985257487E+01
 0.61986285820E+01 0.69515280104E+01 0.77948132008E+01 0.87142165948E+01 0.96816017931E+01
 0.10654794804E+02 0.11583074912E+02 0.12414379697E+02 0.13095556951E+02 0.13579201171E+02
 0.13830262616E+02 0.13830262691E+02 0.13579201616E+02 0.13095557435E+02 0.12414378276E+02
 0.11583069847E+02 0.10654788234E+02 0.96816001069E+01 0.87142246864E+01 0.77948277035E+01
 0.69515381487E+01 0.61986257644E+01 0.55396595258E+01 0.49719064816E+01 0.44902318146E+01
 0.40894612760E+01 0.37651091687E+01 0.35131016894E+01 0.33293566301E+01 0.32098193538E+01
 0.31510526021E+01 0.31510528637E+01 0.32098198987E+01 0.33293561180E+01 0.35130979528E+01
 0.37651024326E+01 0.40894567330E+01 0.44902361098E+01 0.49719198929E+01 0.55396730854E+01
 0.61324275586E+01 0.69515381411E+01 0.78614245066E+01 0.88431654003E+01 0.98635532111E+01
 0.10875345762E+02 0.11821236989E+02 0.12641782795E+02 0.13279183815E+02 0.13683938390E+02
 0.13822762779E+02 0.13683938398E+02 0.13279184022E+02 0.12641783275E+02 0.11821237472E+02
 0.10875345827E+02 0.98635527278E+01 0.88431647051E+01 0.78614240830E+01 0.69515381487E+01
 0.61324277346E+01 0.54112908240E+01 0.47875691770E+01 0.42567794984E+01 0.38131850349E+01
 0.34510675530E+01 0.31649988606E+01 0.29497607244E+01 0.28004250742E+01 0.27127700098E+01
 0.26838971775E+01 0.27127699611E+01 0.28004248786E+01 0.29497603730E+01 0.31649985344E+01
 0.34510674880E+01 0.38131853066E+01 0.42567799419E+01 0.47875695003E+01 0.54112908408E+01
 0.61986283628E+01 0.70858947678E+01 0.80611134606E+01 0.90995483072E+01 0.10161705585E+02
 0.11194084547E+02 0.12133222833E+02 0.12912859585E+02 0.13472673385E+02 0.13765570893E+02
 0.13765570503E+02 0.13472672663E+02 0.12912860344E+02 0.12133227497E+02 0.11194092444E+02
 0.10161710624E+02 0.90995434914E+01 0.80610992133E+01 0.70858809458E+01 0.61986257644E+01
 0.54112908240E+01 0.47265734966E+01 0.41415992760E+01 0.36507908590E+01 0.32475871840E+01
 0.29252480011E+01 0.26772184375E+01 0.24974414505E+01 0.23807700778E+01 0.23234334051E+01
 0.23234335078E+01 0.23807700526E+01 0.24974412344E+01 0.26772194442E+01 0.29252518984E+01
 0.32475925950E+01 0.36507923634E+01 0.41415920418E+01 0.47265599179E+01 0.54112808687E+01
 0.63979889086E+01 0.73553287666E+01 0.83936558803E+01 0.94811537559E+01 0.10570924601E+02
 0.11602555370E+02 0.12507126133E+02 0.13215344424E+02 0.13667477957E+02 0.13822978795E+02
 0.13667477990E+02 0.13215344346E+02 0.12507125941E+02 0.11602555355E+02 0.10570925088E+02
 0.94811546646E+01 0.83936566797E+01 0.73553289705E+01 0.63979885441E+01 0.55396595258E+01
 0.47875691770E+01 0.41415992760E+01 0.35972509065E+01 0.31477248659E+01 0.27852192879E+01
 0.25017790022E+01 0.22899719219E+01 0.21434766161E+01 0.20575335907E+01 0.20292141659E+01
 0.20575335314E+01 0.21434765905E+01 0.22899719925E+01 0.25017791350E+01 0.27852194043E+01
 0.31477249081E+01 0.35972508831E+01 0.41415993106E+01 0.47875694479E+01 0.55396600219E+01
 0.67327923971E+01 0.77617364353E+01 0.88601176719E+01 0.99880134486E+01 0.11090440975E+02
 0.12100144499E+02 0.12944078299E+02 0.13553019658E+02 0.13872516618E+02 0.13872517428E+02
 0.13553020259E+02 0.12944075036E+02 0.12100136392E+02 0.11090433088E+02 0.99880140903E+01
 0.88601299365E+01 0.77617528657E+01 0.67328005094E+01 0.57985258618E+01 0.49719064816E+01
 0.42567794984E+01 0.36507908590E+01 0.31477248659E+01 0.27392174360E+01 0.24160705579E+01
 0.21693500729E+01 0.19912848872E+01 0.18758732705E+01 0.18191415625E+01 0.18191414110E+01
 0.18758729598E+01 0.19912847621E+01 0.21693500177E+01 0.24160692599E+01 0.27392137198E+01
 0.31477208540E+01 0.36507921672E+01 0.42567894459E+01 0.49719199297E+01 0.57985317046E+01
 0.72076018027E+01 0.83101381244E+01 0.94663818382E+01 0.10627469826E+02 0.11729879874E+02
 0.12699893222E+02 0.13461952892E+02 0.13949784749E+02 0.14117815664E+02 0.13949785092E+02
 0.13461953275E+02 0.12699893219E+02 0.11729879236E+02 0.10627468744E+02 0.94663809107E+01
 0.83101379499E+01 0.72076024812E+01 0.61921696370E+01 0.52834727806E+01 0.44902318146E+01
 0.38131850349E+01 0.32475871840E+01 0.27852192879E+01 0.24160705579E+01 0.21298208843E+01
 0.19170979574E+01 0.17703674121E+01 0.16843463668E+01 0.16559986857E+01 0.16843464300E+01
 0.17703675087E+01 0.19170980255E+01 0.21298208654E+01 0.24160704772E+01 0.27852192795E+01
 0.32475873487E+01 0.38131852284E+01 0.44902316662E+01 0.52834720575E+01 0.61921686065E+01
 0.78318040320E+01 0.90124348608E+01 0.10227518222E+02 0.11418090710E+02 0.12511358481E+02
 0.13427406935E+02 0.14089744744E+02 0.14437729501E+02 0.14437729526E+02 0.14089746996E+02
 0.13427414230E+02 0.12511367994E+02 0.11418093999E+02 0.10227509356E+02 0.90124181278E+01
 0.78317916324E+01 0.67282553554E+01 0.57288865112E+01 0.48478413416E+01 0.40894612760E+01
 0.34510675530E+01 0.29252480011E+01 0.25017790022E+01 0.21693500729E+01 0.19170979574E+01
 0.17358012611E+01 0.16185691163E+01 0.15610002792E+01 0.15610002793E+01 0.16185693378E+01
 0.17358017286E+01 0.19170981212E+01 0.21693501332E+01 0.25017806393E+01 0.29252518427E+01
 0.34510700680E+01 0.40894568313E+01 0.48478292438E+01 0.57288747176E+01 0.67282544220E+01
 0.86229128175E+01 0.98900615889E+01 0.11168263939E+02 0.12386582060E+02 0.13461952898E+02
 0.14308772194E+02 0.14851707115E+02 0.15038862208E+02 0.14851706818E+02 0.14308772100E+02
 0.13461953447E+02 0.12386583091E+02 0.11168264750E+02 0.98900615353E+01 0.86229118723E+01
 0.74206148124E+01 0.63191126104E+01 0.53387083901E+01 0.44875527609E+01 0.37651091687E+01
 0.31649988606E+01 0.26772184375E+01 0.22899719219E+01 0.19912848872E+01 0.17703674121E+01
 0.16185691163E+01 0.15298173745E+01 0.15006104575E+01 0.15298172776E+01 0.16185689910E+01
 0.17703673705E+01 0.19912850012E+01 0.22899721186E+01 0.26772184987E+01 0.31649985877E+01
 0.37651086071E+01 0.44875522723E+01 0.53387084495E+01 0.63191134239E+01 0.74206160531E+01
 0.96063771864E+01 0.10969879668E+02 0.12313734968E+02 0.13553026483E+02 0.14594325832E+02
 0.15348445959E+02 0.15744968300E+02 0.15744965849E+02 0.15348438564E+02 0.14594315679E+02
 0.13553020260E+02 0.12313739594E+02 0.10969894323E+02 0.96063917436E+01 0.82911737450E+01
 0.70718825126E+01 0.59768792059E+01 0.50189011737E+01 0.41995202185E+01 0.35131016894E+01
 0.29497607244E+01 0.24974414505E+01 0.21434766161E+01 0.18758732705E+01 0.16843463668E+01
 0.15610002792E+01 0.15006104575E+01 0.15006106338E+01 0.15610003862E+01 0.16843459436E+01
 0.18758728080E+01 0.21434767444E+01 0.24974412832E+01 0.29497584759E+01 0.35130979623E+01
 0.41995195843E+01 0.50189081293E+01 0.59768916786E+01 0.70718911669E+01 0.82911700920E+01
 0.10806335787E+02 0.12268368385E+02 0.13667478313E+02 0.14904858862E+02 0.15880618423E+02
 0.16506871557E+02 0.16722859266E+02 0.16506871771E+02 0.15880618482E+02 0.14904858515E+02
 0.13667477817E+02 0.12268368289E+02 0.10806336330E+02 0.93662846319E+01 0.80117057559E+01
 0.67829614703E+01 0.57000309714E+01 0.47676665891E+01 0.39808771075E+01 0.33293566301E+01
 0.28004250742E+01 0.23807700778E+01 0.20575335907E+01 0.18191415625E+01 0.16559986857E+01
 0.15610002793E+01 0.15298172776E+01 0.15610003862E+01 0.16559988259E+01 0.18191416166E+01
 0.20575334763E+01 0.23807698337E+01 0.28004248553E+01 0.33293566200E+01 0.39808774219E+01
 0.47676671789E+01 0.57000315505E+01 0.67829616197E+01 0.80117052712E+01 0.93662838104E+01
 0.12224154158E+02 0.13765582335E+02 0.15189968266E+02 0.16388683863E+02 0.17257463334E+02
 0.17714362980E+02 0.17714368701E+02 0.17257476386E+02 0.16388694545E+02 0.15189968014E+02
 0.13765570498E+02 0.12224139135E+02 0.10662881349E+02 0.91628829920E+01 0.77821034093E+01
 0.65531660154E+01 0.54877237112E+01 0.45830434952E+01 0.38284034895E+01 0.32098193538E+01
 0.27127700098E+01 0.23234334051E+01 0.20292141659E+01 0.18191414110E+01 0.16843464300E+01
 0.16185693378E+01 0.16185689910E+01 0.16843459436E+01 0.18191416166E+01 0.20292148591E+01
 0.23234335575E+01 0.27127695221E+01 0.32098198469E+01 0.38284062348E+01 0.45830464752E+01
 0.54877221888E+01 0.65531576134E+01 0.77820925481E+01 0.91628786047E+01 0.10662888753E+02
 0.13822762541E+02 0.15409439587E+02 0.16810918861E+02 0.17912242592E+02 0.18616206155E+02
 0.18858358290E+02 0.18616205913E+02 0.17912242440E+02 0.16810919080E+02 0.15409440081E+02
 0.13822762947E+02 0.12165070951E+02 0.10532208767E+02 0.89943774207E+01 0.76024797077E+01
 0.63823523368E+01 0.53385974169E+01 0.44624124855E+01 0.37387249338E+01 0.31510526021E+01
 0.26838971775E+01 0.23234335078E+01 0.20575335314E+01 0.18758729598E+01 0.17703675087E+01
 0.17358017286E+01 0.17703673705E+01 0.18758728080E+01 0.20575334763E+01 0.23234335575E+01
 0.26838972955E+01 0.31510527782E+01 0.37387251368E+01 0.44624125915E+01 0.53385972911E+01
 0.63823520182E+01 0.76024794301E+01 0.89943773701E+01 0.10532208843E+02 0.12165070854E+02
 0.15535679917E+02 0.17092586937E+02 0.18382558674E+02 0.19303481037E+02 0.19782572046E+02
 0.19782564468E+02 0.19303465678E+02 0.18382550403E+02 0.17092593761E+02 0.15535695908E+02
 0.13830262625E+02 0.12092233127E+02 0.10415964081E+02 0.88629435461E+01 0.74738012322E+01
 0.62697704544E+01 0.52505317874E+01 0.44030050801E+01 0.37091730671E+01 0.31510528637E+01
 0.27127699611E+01 0.23807700526E+01 0.21434765905E+01 0.19912847621E+01 0.19170980255E+01
 0.19170981212E+01 0.19912850012E+01 0.21434767444E+01 0.23807698337E+01 0.27127695221E+01
 0.31510527782E+01 0.37091732991E+01 0.44030044399E+01 0.52505295781E+01 0.62697688264E+01
 0.74738043008E+01 0.88629524226E+01 0.10415973087E+02 0.12092233263E+02 0.13830250718E+02
 0.17209905596E+02 0.18611641159E+02 0.19675293858E+02 0.20336300660E+02 0.20560125244E+02
 0.20336299759E+02 0.19675292501E+02 0.18611639911E+02 0.17209904813E+02 0.15565684362E+02
 0.13795517735E+02 0.12016404416E+02 0.10322910777E+02 0.87724145131E+01 0.73966305615E+01
 0.62140401352E+01 0.52214638011E+01 0.44030045404E+01 0.37387252106E+01 0.32098198987E+01
 0.28004248786E+01 0.24974412344E+01 0.22899719925E+01 0.21693500177E+01 0.21298208654E+01
 0.21693501332E+01 0.22899721186E+01 0.24974412832E+01 0.28004248553E+01 0.32098198469E+01
 0.37387251368E+01 0.44030044399E+01 0.52214637189E+01 0.62140401320E+01 0.73966306120E+01
 0.87724144995E+01 0.10322910617E+02 0.12016404181E+02 0.13795517632E+02 0.15565684626E+02
 0.18604325811E+02 0.19703031131E+02 0.20440086150E+02 0.20806977326E+02 0.20806981465E+02
 0.20440093733E+02 0.19703032334E+02 0.18604315922E+02 0.17184121725E+02 0.15524440513E+02
 0.13740118556E+02 0.11953091860E+02 0.10262604048E+02 0.87262085492E+01 0.73709441343E+01
 0.62140402457E+01 0.52505316069E+01 0.44624122363E+01 0.38284039162E+01 0.33293561180E+01
 0.29497603730E+01 0.26772194442E+01 0.25017791350E+01 0.24160692599E+01 0.24160704772E+01
 0.25017806393E+01 0.26772184987E+01 0.29497584759E+01 0.33293566200E+01 0.38284062348E+01
 0.44624125915E+01 0.52505295781E+01 0.62140401320E+01 0.73709477300E+01 0.87262103474E+01
 0.10262597790E+02 0.11953080465E+02 0.13740113016E+02 0.15524447743E+02 0.17184136327E+02
 0.19454888304E+02 0.20134470186E+02 0.20510146478E+02 0.20628611145E+02 0.20510148005E+02
 0.20134472188E+02 0.19454889497E+02 0.18433318775E+02 0.17077097526E+02 0.15456415928E+02
 0.13691589799E+02 0.11917011487E+02 0.10241713717E+02 0.87262103571E+01 0.73966305910E+01
 0.62697687104E+01 0.53385971455E+01 0.45830464477E+01 0.39808774802E+01 0.35130979528E+01
 0.31649985344E+01 0.29252518984E+01 0.27852194043E+01 0.27392137198E+01 0.27852192795E+01
 0.29252518427E+01 0.31649985877E+01 0.35130979623E+01 0.39808774219E+01 0.45830464752E+01
 0.53385972911E+01 0.62697688264E+01 0.73966306120E+01 0.87262103474E+01 0.10241713671E+02
 0.11917011401E+02 0.13691589928E+02 0.15456416549E+02 0.17077098333E+02 0.18433318876E+02
 0.19582339088E+02 0.19815366090E+02 0.19893835281E+02 0.19893840113E+02 0.19815375639E+02
 0.19582346248E+02 0.19080441205E+02 0.18216082503E+02 0.16968399130E+02 0.15407850292E+02
 0.13672520890E+02 0.11917006468E+02 0.10262603775E+02 0.87724204960E+01 0.74738012092E+01
 0.63823459754E+01 0.54877236731E+01 0.47676737211E+01 0.41995202647E+01 0.37651024326E+01
 0.34510674880E+01 0.32475925950E+01 0.31477249081E+01 0.31477208540E+01 0.32475873487E+01
 0.34510700680E+01 0.37651086071E+01 0.41995195843E+01 0.47676671789E+01 0.54877221888E+01
 0.63823520182E+01 0.74738043008E+01 0.87724144995E+01 0.10262597790E+02 0.11917011401E+02
 0.13672532941E+02 0.15407856733E+02 0.16968395846E+02 0.18216076139E+02 0.19080435969E+02
 0.18990895372E+02 0.18866303905E+02 0.18804279904E+02 0.18866302863E+02 0.18990894255E+02
 0.19018725263E+02 0.18758973381E+02 0.18070808536E+02 0.16923728166E+02 0.15407857034E+02
 0.13691589963E+02 0.11953080301E+02 0.10322910561E+02 0.88629525187E+01 0.76024794362E+01
 0.65531574999E+01 0.57000315364E+01 0.50189082159E+01 0.44875522460E+01 0.40894567330E+01
 0.38131853066E+01 0.36507923634E+01 0.35972508831E+01 0.36507921672E+01 0.38131852284E+01
 0.40894568313E+01 0.44875522723E+01 0.50189081293E+01 0.57000315505E+01 0.65531576134E+01
 0.76024794301E+01 0.88629524226E+01 0.10322910617E+02 0.11953080465E+02 0.13691589928E+02
 0.15407856733E+02 0.16923727813E+02 0.18070808261E+02 0.18758973301E+02 0.19018725728E+02
 0.17899566503E+02 0.17603059440E+02 0.17603043846E+02 0.17899537865E+02 0.18338774645E+02
 0.18668815338E+02 0.18633693768E+02 0.18070804778E+02 0.16968399802E+02 0.15456429895E+02
 0.13740118944E+02 0.12016394774E+02 0.10415964104E+02 0.89943832354E+01 0.77821028061E+01
 0.67829586607E+01 0.59768802824E+01 0.53387076731E+01 0.48478403810E+01 0.44902361098E+01
 0.42567799419E+01 0.41415920418E+01 0.41415993106E+01 0.42567894459E+01 0.44902316662E+01
 0.48478292438E+01 0.53387084495E+01 0.59768916786E+01 0.67829616197E+01 0.77820925481E+01
 0.89943773701E+01 0.10415973087E+02 0.12016404181E+02 0.13740113016E+02 0.15456416549E+02
 0.16968395846E+02 0.18070808261E+02 0.18633691557E+02 0.18668811669E+02 0.18338787867E+02
 0.16682564473E+02 0.16438176953E+02 0.16682565004E+02 0.17319656794E+02 0.18092340560E+02
 0.18668810227E+02 0.18758971823E+02 0.18216075602E+02 0.17077098778E+02 0.15524448420E+02
 0.13795517997E+02 0.12092233369E+02 0.10532208870E+02 0.91628785504E+01 0.80117051694E+01
 0.70718911663E+01 0.63191135138E+01 0.57288747202E+01 0.52834719564E+01 0.49719198929E+01
 0.47875695003E+01 0.47265599179E+01 0.47875694479E+01 0.49719199297E+01 0.52834720575E+01
 0.57288747176E+01 0.63191134239E+01 0.70718911669E+01 0.80117052712E+01 0.91628786047E+01
 0.10532208843E+02 0.12092233263E+02 0.13795517632E+02 0.15524447743E+02 0.17077098333E+02
 0.18216076139E+02 0.18758973301E+02 0.18668811669E+02 0.18092341062E+02 0.17319656396E+02
 0.15746012880E+02 0.15746035914E+02 0.16339238724E+02 0.17319672146E+02 0.18338775272E+02
 0.19018715292E+02 0.19080439320E+02 0.18433317931E+02 0.17184123051E+02 0.15565677914E+02
 0.13830262366E+02 0.12165082392E+02 0.10662881291E+02 0.93662702703E+01 0.82911737845E+01
 0.74206311014E+01 0.67282553856E+01 0.61921535399E+01 0.57985257487E+01 0.55396730854E+01
 0.54112908408E+01 0.54112808687E+01 0.55396600219E+01 0.57985317046E+01 0.61921686065E+01
 0.67282544220E+01 0.74206160531E+01 0.82911700920E+01 0.93662838104E+01 0.10662888753E+02
 0.12165070854E+02 0.13830250718E+02 0.15565684626E+02 0.17184136327E+02 0.18433318876E+02
 0.19080435969E+02 0.19018725728E+02 0.18338787867E+02 0.17319656396E+02 0.16339197327E+02
 0.15746013116E+02 0.16438135869E+02 0.17603043526E+02 0.18866315734E+02 0.19815375742E+02
 0.20134466730E+02 0.19703032667E+02 0.18611655031E+02 0.17092593654E+02 0.15409427539E+02
 0.13765570662E+02 0.12268376213E+02 0.10969893544E+02 0.98900576628E+01 0.90124192461E+01
 0.83101369416E+01 0.77617517679E+01 0.73553349309E+01 0.70858815311E+01 0.69515279846E+01
 0.69515381509E+01 0.70858948003E+01 0.73553287507E+01 0.77617363909E+01 0.83101381275E+01
 0.90124348928E+01 0.98900615728E+01 0.10969879622E+02 0.12268368387E+02 0.13765582368E+02