   2   2   1   0
  0.5700550E+01  0.2526314E-09  0.2526314E-09  0.2526314E-09  0.5000000E-15
   1.0000000000000000E-004
  CAR 
 fcc C                                   
     28.37841147    -13.75444348  301      9.70170686      1.00000000
    -13.754  0.0000E+00  0.0000E+00
    -13.614  0.0000E+00  0.0000E+00
    -13.474  0.0000E+00  0.0000E+00
    -13.333  0.0000E+00  0.0000E+00
    -13.193  0.0000E+00  0.0000E+00
    -13.052  0.0000E+00  0.0000E+00
    -12.912  0.0000E+00  0.0000E+00
    -12.771  0.0000E+00  0.0000E+00
    -12.631  0.0000E+00  0.0000E+00
    -12.490  0.0000E+00  0.0000E+00
    -12.350  0.0000E+00  0.0000E+00
    -12.210  0.0000E+00  0.0000E+00
    -12.069  0.0000E+00  0.0000E+00
    -11.929  0.0000E+00  0.0000E+00
    -11.788  0.0000E+00  0.0000E+00
    -11.648  0.5014E-02  0.1782E-03
    -11.507  0.2692E-01  0.2217E-02
    -11.367  0.6621E-01  0.8553E-02
    -11.226  0.6977E-01  0.1895E-01
    -11.086  0.7792E-01  0.2919E-01
    -10.946  0.8880E-01  0.4089E-01
    -10.805  0.1003E+00  0.5416E-01
    -10.665  0.1123E+00  0.6909E-01
    -10.524  0.1241E+00  0.8572E-01
    -10.384  0.1322E+00  0.1038E+00
    -10.243  0.1362E+00  0.1227E+00
    -10.103  0.1390E+00  0.1419E+00
     -9.962  0.1456E+00  0.1619E+00
     -9.822  0.1527E+00  0.1829E+00
     -9.682  0.1598E+00  0.2048E+00
     -9.541  0.1671E+00  0.2278E+00
     -9.401  0.1745E+00  0.2517E+00
     -9.260  0.1821E+00  0.2768E+00
     -9.120  0.1898E+00  0.3029E+00
     -8.979  0.1939E+00  0.3299E+00
     -8.839  0.1988E+00  0.3575E+00
     -8.699  0.2041E+00  0.3858E+00
     -8.558  0.2093E+00  0.4148E+00
     -8.418  0.2145E+00  0.4446E+00
     -8.277  0.2198E+00  0.4751E+00
     -8.137  0.2256E+00  0.5063E+00
     -7.996  0.2317E+00  0.5384E+00
     -7.856  0.2385E+00  0.5714E+00
     -7.715  0.2455E+00  0.6054E+00
     -7.575  0.2528E+00  0.6404E+00
     -7.435  0.2603E+00  0.6764E+00
     -7.294  0.2680E+00  0.7135E+00
     -7.154  0.2759E+00  0.7517E+00
     -7.013  0.2838E+00  0.7910E+00
     -6.873  0.2922E+00  0.8314E+00
     -6.732  0.3065E+00  0.8734E+00
     -6.592  0.3286E+00  0.9179E+00
     -6.451  0.3584E+00  0.9661E+00
     -6.311  0.3960E+00  0.1019E+01
     -6.171  0.4413E+00  0.1078E+01
     -6.030  0.3810E+00  0.1141E+01
     -5.890  0.3623E+00  0.1192E+01
     -5.749  0.3656E+00  0.1243E+01
     -5.609  0.3670E+00  0.1295E+01
     -5.468  0.3620E+00  0.1346E+01
     -5.328  0.3507E+00  0.1396E+01
     -5.187  0.3330E+00  0.1444E+01
     -5.047  0.3111E+00  0.1489E+01
     -4.907  0.3407E+00  0.1535E+01
     -4.766  0.3389E+00  0.1583E+01
     -4.626  0.3343E+00  0.1631E+01
     -4.485  0.3258E+00  0.1677E+01
     -4.345  0.3134E+00  0.1722E+01
     -4.204  0.2970E+00  0.1765E+01
     -4.064  0.2767E+00  0.1805E+01
     -3.923  0.2542E+00  0.1842E+01
     -3.783  0.2293E+00  0.1876E+01
     -3.643  0.2016E+00  0.1907E+01
     -3.502  0.1736E+00  0.1933E+01
     -3.362  0.1468E+00  0.1956E+01
     -3.221  0.1221E+00  0.1974E+01
     -3.081  0.1046E+00  0.1990E+01
     -2.940  0.9805E-01  0.2004E+01
     -2.800  0.1394E+00  0.2019E+01
     -2.659  0.1982E+00  0.2044E+01
     -2.519  0.2322E+00  0.2074E+01
     -2.379  0.2786E+00  0.2110E+01
     -2.238  0.3367E+00  0.2153E+01
     -2.098  0.3998E+00  0.2204E+01
     -1.957  0.4918E+00  0.2266E+01
     -1.817  0.6479E+00  0.2347E+01
     -1.676  0.7380E+00  0.2445E+01
     -1.536  0.7610E+00  0.2551E+01
     -1.395  0.6720E+00  0.2653E+01
     -1.255  0.5558E+00  0.2739E+01
     -1.115  0.4561E+00  0.2810E+01
     -0.974  0.3855E+00  0.2868E+01
     -0.834  0.3520E+00  0.2920E+01
     -0.693  0.3345E+00  0.2968E+01
     -0.553  0.3251E+00  0.3014E+01
     -0.412  0.3201E+00  0.3060E+01
     -0.272  0.3196E+00  0.3105E+01
     -0.131  0.3155E+00  0.3150E+01
      0.009  0.2839E+00  0.3192E+01
      0.149  0.2571E+00  0.3229E+01
      0.290  0.2352E+00  0.3264E+01
      0.430  0.2192E+00  0.3296E+01
      0.571  0.2215E+00  0.3326E+01
      0.711  0.2457E+00  0.3359E+01
      0.852  0.2899E+00  0.3396E+01
      0.992  0.3835E+00  0.3443E+01
      1.132  0.5422E+00  0.3507E+01
      1.273  0.7649E+00  0.3598E+01
      1.413  0.5268E+00  0.3681E+01
      1.554  0.5314E+00  0.3756E+01
      1.694  0.5405E+00  0.3831E+01
      1.835  0.5540E+00  0.3908E+01
      1.975  0.5513E+00  0.3986E+01
      2.116  0.5353E+00  0.4062E+01
      2.256  0.5422E+00  0.4137E+01
      2.396  0.7167E+00  0.4222E+01
      2.537  0.6103E+00  0.4314E+01
      2.677  0.5754E+00  0.4397E+01
      2.818  0.5881E+00  0.4478E+01
      2.958  0.6129E+00  0.4563E+01
      3.099  0.6480E+00  0.4651E+01
      3.239  0.6923E+00  0.4745E+01
      3.380  0.7467E+00  0.4846E+01
      3.520  0.7902E+00  0.4954E+01
      3.660  0.8250E+00  0.5068E+01
      3.801  0.9574E+00  0.5193E+01
      3.941  0.8095E+00  0.5314E+01
      4.082  0.7996E+00  0.5427E+01
      4.222  0.7916E+00  0.5539E+01
      4.363  0.7916E+00  0.5650E+01
      4.503  0.7913E+00  0.5761E+01
      4.644  0.7708E+00  0.5871E+01
      4.784  0.7440E+00  0.5978E+01
      4.924  0.7306E+00  0.6081E+01
      5.065  0.7290E+00  0.6183E+01
      5.205  0.7319E+00  0.6286E+01
      5.346  0.7391E+00  0.6389E+01
      5.486  0.7453E+00  0.6493E+01
      5.627  0.7392E+00  0.6598E+01
      5.767  0.7259E+00  0.6701E+01
      5.908  0.7091E+00  0.6802E+01
      6.048  0.6888E+00  0.6900E+01
      6.188  0.6720E+00  0.6995E+01
      6.329  0.6671E+00  0.7089E+01
      6.469  0.6590E+00  0.7182E+01
      6.610  0.6431E+00  0.7274E+01
      6.750  0.6125E+00  0.7362E+01
      6.891  0.5279E+00  0.7443E+01
      7.031  0.4432E+00  0.7511E+01
      7.172  0.4011E+00  0.7570E+01
      7.312  0.3695E+00  0.7624E+01
      7.452  0.3362E+00  0.7674E+01
      7.593  0.3037E+00  0.7718E+01
      7.733  0.2734E+00  0.7759E+01
      7.874  0.2464E+00  0.7795E+01
      8.014  0.2224E+00  0.7828E+01
      8.155  0.2005E+00  0.7858E+01
      8.295  0.1804E+00  0.7885E+01
      8.436  0.1627E+00  0.7909E+01
      8.576  0.1485E+00  0.7931E+01
      8.716  0.1379E+00  0.7951E+01
      8.857  0.1309E+00  0.7969E+01
      8.997  0.7074E-01  0.7986E+01
      9.138  0.4052E-01  0.7993E+01
      9.278  0.2138E-01  0.7997E+01
      9.419  0.8306E-02  0.7999E+01
      9.559  0.1300E-02  0.8000E+01
      9.700  0.0000E+00  0.8000E+01
      9.840  0.0000E+00  0.8000E+01
      9.980  0.0000E+00  0.8000E+01
     10.121  0.0000E+00  0.8000E+01
     10.261  0.0000E+00  0.8000E+01
     10.402  0.0000E+00  0.8000E+01
     10.542  0.0000E+00  0.8000E+01
     10.683  0.0000E+00  0.8000E+01
     10.823  0.0000E+00  0.8000E+01
     10.963  0.0000E+00  0.8000E+01
     11.104  0.0000E+00  0.8000E+01
     11.244  0.0000E+00  0.8000E+01
     11.385  0.0000E+00  0.8000E+01
     11.525  0.0000E+00  0.8000E+01
     11.666  0.0000E+00  0.8000E+01
     11.806  0.0000E+00  0.8000E+01
     11.947  0.0000E+00  0.8000E+01
     12.087  0.0000E+00  0.8000E+01
     12.227  0.0000E+00  0.8000E+01
     12.368  0.0000E+00  0.8000E+01
     12.508  0.0000E+00  0.8000E+01
     12.649  0.0000E+00  0.8000E+01
     12.789  0.0000E+00  0.8000E+01
     12.930  0.0000E+00  0.8000E+01
     13.070  0.0000E+00  0.8000E+01
     13.211  0.0000E+00  0.8000E+01
     13.351  0.0000E+00  0.8000E+01
     13.491  0.0000E+00  0.8000E+01
     13.632  0.0000E+00  0.8000E+01
     13.772  0.0000E+00  0.8000E+01
     13.913  0.6596E-02  0.8000E+01
     14.053  0.2688E-01  0.8002E+01
     14.194  0.5894E-01  0.8008E+01
     14.334  0.9865E-01  0.8019E+01
     14.475  0.1424E+00  0.8036E+01
     14.615  0.1711E+00  0.8059E+01
     14.755  0.2024E+00  0.8085E+01
     14.896  0.2359E+00  0.8116E+01
     15.036  0.2739E+00  0.8151E+01
     15.177  0.3162E+00  0.8193E+01
     15.317  0.3617E+00  0.8240E+01
     15.458  0.4072E+00  0.8294E+01
     15.598  0.4496E+00  0.8355E+01
     15.739  0.4871E+00  0.8420E+01
     15.879  0.5217E+00  0.8491E+01
     16.019  0.5544E+00  0.8567E+01
     16.160  0.5723E+00  0.8646E+01
     16.300  0.5915E+00  0.8728E+01
     16.441  0.6285E+00  0.8813E+01
     16.581  0.6757E+00  0.8905E+01
     16.722  0.7237E+00  0.9003E+01
     16.862  0.7801E+00  0.9109E+01
     17.003  0.8495E+00  0.9223E+01
     17.143  0.9320E+00  0.9348E+01
     17.283  0.1097E+01  0.9488E+01
     17.424  0.1310E+01  0.9658E+01
     17.564  0.1457E+01  0.9853E+01
     17.705  0.1457E+01  0.1007E+02
     17.845  0.7741E+00  0.1023E+02
     17.986  0.4441E+00  0.1031E+02
     18.126  0.4277E+00  0.1037E+02
     18.267  0.4874E+00  0.1043E+02
     18.407  0.5499E+00  0.1050E+02
     18.547  0.6304E+00  0.1059E+02
     18.688  0.7213E+00  0.1068E+02
     18.828  0.8254E+00  0.1079E+02
     18.969  0.1007E+01  0.1092E+02
     19.109  0.1321E+01  0.1108E+02
     19.250  0.1455E+01  0.1128E+02
     19.390  0.1396E+01  0.1148E+02
     19.531  0.1154E+01  0.1166E+02
     19.671  0.8211E+00  0.1180E+02
     19.811  0.7482E+00  0.1191E+02
     19.952  0.6950E+00  0.1201E+02
     20.092  0.6724E+00  0.1210E+02
     20.233  0.6458E+00  0.1220E+02
     20.373  0.9174E+00  0.1230E+02
     20.514  0.6929E+00  0.1245E+02
     20.654  0.5254E+00  0.1253E+02
     20.794  0.4764E+00  0.1260E+02
     20.935  0.4159E+00  0.1266E+02
     21.075  0.3445E+00  0.1271E+02
     21.216  0.2869E+00  0.1276E+02
     21.356  0.2765E+00  0.1280E+02
     21.497  0.3181E+00  0.1284E+02
     21.637  0.3690E+00  0.1289E+02
     21.778  0.4254E+00  0.1294E+02
     21.918  0.4884E+00  0.1301E+02
     22.058  0.7517E+00  0.1309E+02
     22.199  0.1235E+01  0.1323E+02
     22.339  0.1422E+01  0.1342E+02
     22.480  0.1327E+01  0.1362E+02
     22.620  0.1022E+01  0.1378E+02
     22.761  0.7980E+00  0.1391E+02
     22.901  0.8599E+00  0.1402E+02
     23.042  0.8521E+00  0.1414E+02
     23.182  0.8760E+00  0.1427E+02
     23.322  0.7847E+00  0.1438E+02
     23.463  0.8055E+00  0.1449E+02
     23.603  0.8234E+00  0.1461E+02
     23.744  0.8126E+00  0.1472E+02
     23.884  0.8268E+00  0.1484E+02
     24.025  0.8481E+00  0.1496E+02
     24.165  0.8834E+00  0.1508E+02
     24.306  0.1037E+01  0.1521E+02
     24.446  0.1158E+01  0.1537E+02
     24.586  0.7544E+00  0.1550E+02
     24.727  0.7229E+00  0.1560E+02
     24.867  0.6366E+00  0.1570E+02
     25.008  0.5891E+00  0.1578E+02
     25.148  0.3945E+00  0.1585E+02
     25.289  0.3166E+00  0.1590E+02
     25.429  0.2247E+00  0.1594E+02
     25.570  0.1378E+00  0.1596E+02
     25.710  0.9409E-01  0.1598E+02
     25.850  0.5870E-01  0.1599E+02
     25.991  0.3163E-01  0.1600E+02
     26.131  0.1286E-01  0.1600E+02
     26.272  0.2395E-02  0.1600E+02
     26.412  0.0000E+00  0.1600E+02
     26.553  0.0000E+00  0.1600E+02
     26.693  0.0000E+00  0.1600E+02
     26.834  0.0000E+00  0.1600E+02
     26.974  0.0000E+00  0.1600E+02
     27.114  0.0000E+00  0.1600E+02
     27.255  0.0000E+00  0.1600E+02
     27.395  0.0000E+00  0.1600E+02
     27.536  0.0000E+00  0.1600E+02
     27.676  0.0000E+00  0.1600E+02
     27.817  0.0000E+00  0.1600E+02
     27.957  0.0000E+00  0.1600E+02
     28.098  0.0000E+00  0.1600E+02
     28.238  0.0000E+00  0.1600E+02
     28.378  0.0000E+00  0.1600E+02
     28.37841147    -13.75444348  301      9.70170686      1.00000000
    -13.754  0.0000E+00  0.0000E+00  0.0000E+00  0.0000E+00  0.0000E+00  0.0000E+00  0.0000E+00  0.0000E+00  0.0000E+00
    -13.614  0.0000E+00  0.0000E+00  0.0000E+00  0.0000E+00  0.0000E+00  0.0000E+00  0.0000E+00  0.0000E+00  0.0000E+00
    -13.474  0.0000E+00  0.0000E+00  0.0000E+00  0.0000E+00  0.0000E+00  0.0000E+00  0.0000E+00  0.0000E+00  0.0000E+00
    -13.333  0.0000E+00  0.0000E+00  0.0000E+00  0.0000E+00  0.0000E+00  0.0000E+00  0.0000E+00  0.0000E+00  0.0000E+00
    -13.193  0.0000E+00  0.0000E+00  0.0000E+00  0.0000E+00  0.0000E+00  0.0000E+00  0.0000E+00  0.0000E+00  0.0000E+00
    -13.052  0.0000E+00  0.0000E+00  0.0000E+00  0.0000E+00  0.0000E+00  0.0000E+00  0.0000E+00  0.0000E+00  0.0000E+00
    -12.912  0.0000E+00  0.0000E+00  0.0000E+00  0.0000E+00  0.0000E+00  0.0000E+00  0.0000E+00  0.0000E+00  0.0000E+00
    -12.771  0.0000E+00  0.0000E+00  0.0000E+00  0.0000E+00  0.0000E+00  0.0000E+00  0.0000E+00  0.0000E+00  0.0000E+00
    -12.631  0.0000E+00  0.0000E+00  0.0000E+00  0.0000E+00  0.0000E+00  0.0000E+00  0.0000E+00  0.0000E+00  0.0000E+00
    -12.490  0.0000E+00  0.0000E+00  0.0000E+00  0.0000E+00  0.0000E+00  0.0000E+00  0.0000E+00  0.0000E+00  0.0000E+00
    -12.350  0.0000E+00  0.0000E+00  0.0000E+00  0.0000E+00  0.0000E+00  0.0000E+00  0.0000E+00  0.0000E+00  0.0000E+00
    -12.210  0.0000E+00  0.0000E+00  0.0000E+00  0.0000E+00  0.0000E+00  0.0000E+00  0.0000E+00  0.0000E+00  0.0000E+00
    -12.069  0.0000E+00  0.0000E+00  0.0000E+00  0.0000E+00  0.0000E+00  0.0000E+00  0.0000E+00  0.0000E+00  0.0000E+00
    -11.929  0.0000E+00  0.0000E+00  0.0000E+00  0.0000E+00  0.0000E+00  0.0000E+00  0.0000E+00  0.0000E+00  0.0000E+00
    -11.788  0.0000E+00  0.0000E+00  0.0000E+00  0.0000E+00  0.0000E+00  0.0000E+00  0.0000E+00  0.0000E+00  0.0000E+00
    -11.648  0.1366E-02  0.7982E-05  0.7982E-05  0.7982E-05  0.0000E+00  0.0000E+00  0.0000E+00  0.0000E+00  0.0000E+00
    -11.507  0.7331E-02  0.4285E-04  0.4285E-04  0.4285E-04  0.0000E+00  0.0000E+00  0.0000E+00  0.0000E+00  0.0000E+00
    -11.367  0.1803E-01  0.1054E-03  0.1054E-03  0.1054E-03  0.0000E+00  0.0000E+00  0.0000E+00  0.0000E+00  0.0000E+00
    -11.226  0.1883E-01  0.1994E-03  0.1994E-03  0.1994E-03  0.0000E+00  0.0000E+00  0.0000E+00  0.0000E+00  0.0000E+00
    -11.086  0.2091E-01  0.2801E-03  0.2801E-03  0.2801E-03  0.0000E+00  0.0000E+00  0.0000E+00  0.0000E+00  0.0000E+00
    -10.946  0.2374E-01  0.3643E-03  0.3643E-03  0.3643E-03  0.0000E+00  0.0000E+00  0.0000E+00  0.0000E+00  0.0000E+00
    -10.805  0.2673E-01  0.4540E-03  0.4540E-03  0.4540E-03  0.0000E+00  0.0000E+00  0.0000E+00  0.0000E+00  0.0000E+00
    -10.665  0.2987E-01  0.5492E-03  0.5492E-03  0.5492E-03  0.0000E+00  0.0000E+00  0.0000E+00  0.0000E+00  0.0000E+00
    -10.524  0.3291E-01  0.6532E-03  0.6532E-03  0.6532E-03  0.0000E+00  0.0000E+00  0.0000E+00  0.0000E+00  0.0000E+00
    -10.384  0.3489E-01  0.7780E-03  0.7780E-03  0.7780E-03  0.0000E+00  0.0000E+00  0.0000E+00  0.0000E+00  0.0000E+00
    -10.243  0.3571E-01  0.9250E-03  0.9250E-03  0.9250E-03  0.0000E+00  0.0000E+00  0.0000E+00  0.0000E+00  0.0000E+00
    -10.103  0.3621E-01  0.1078E-02  0.1078E-02  0.1078E-02  0.0000E+00  0.0000E+00  0.0000E+00  0.0000E+00  0.0000E+00
     -9.962  0.3778E-01  0.1212E-02  0.1212E-02  0.1212E-02  0.0000E+00  0.0000E+00  0.0000E+00  0.0000E+00  0.0000E+00
     -9.822  0.3947E-01  0.1346E-02  0.1346E-02  0.1346E-02  0.0000E+00  0.0000E+00  0.0000E+00  0.0000E+00  0.0000E+00
     -9.682  0.4119E-01  0.1483E-02  0.1483E-02  0.1483E-02  0.0000E+00  0.0000E+00  0.0000E+00  0.0000E+00  0.0000E+00
     -9.541  0.4293E-01  0.1624E-02  0.1624E-02  0.1624E-02  0.0000E+00  0.0000E+00  0.0000E+00  0.0000E+00  0.0000E+00
     -9.401  0.4471E-01  0.1767E-02  0.1767E-02  0.1767E-02  0.0000E+00  0.0000E+00  0.0000E+00  0.0000E+00  0.0000E+00
     -9.260  0.4653E-01  0.1913E-02  0.1913E-02  0.1913E-02  0.0000E+00  0.0000E+00  0.0000E+00  0.0000E+00  0.0000E+00
     -9.120  0.4838E-01  0.2062E-02  0.2062E-02  0.2062E-02  0.0000E+00  0.0000E+00  0.0000E+00  0.0000E+00  0.0000E+00
     -8.979  0.4918E-01  0.2261E-02  0.2261E-02  0.2261E-02  0.0000E+00  0.0000E+00  0.0000E+00  0.0000E+00  0.0000E+00
     -8.839  0.5023E-01  0.2449E-02  0.2449E-02  0.2449E-02  0.0000E+00  0.0000E+00  0.0000E+00  0.0000E+00  0.0000E+00
     -8.699  0.5138E-01  0.2637E-02  0.2637E-02  0.2637E-02  0.0000E+00  0.0000E+00  0.0000E+00  0.0000E+00  0.0000E+00
     -8.558  0.5252E-01  0.2827E-02  0.2827E-02  0.2827E-02  0.0000E+00  0.0000E+00  0.0000E+00  0.0000E+00  0.0000E+00
     -8.418  0.5366E-01  0.3021E-02  0.3021E-02  0.3021E-02  0.0000E+00  0.0000E+00  0.0000E+00  0.0000E+00  0.0000E+00
     -8.277  0.5482E-01  0.3216E-02  0.3216E-02  0.3216E-02  0.0000E+00  0.0000E+00  0.0000E+00  0.0000E+00  0.0000E+00
     -8.137  0.5613E-01  0.3409E-02  0.3409E-02  0.3409E-02  0.0000E+00  0.0000E+00  0.0000E+00  0.0000E+00  0.0000E+00
     -7.996  0.5757E-01  0.3598E-02  0.3598E-02  0.3598E-02  0.0000E+00  0.0000E+00  0.0000E+00  0.0000E+00  0.0000E+00
     -7.856  0.5919E-01  0.3784E-02  0.3784E-02  0.3784E-02  0.0000E+00  0.0000E+00  0.0000E+00  0.0000E+00  0.0000E+00
     -7.715  0.6089E-01  0.3972E-02  0.3972E-02  0.3972E-02  0.0000E+00  0.0000E+00  0.0000E+00  0.0000E+00  0.0000E+00
     -7.575  0.6267E-01  0.4162E-02  0.4162E-02  0.4162E-02  0.0000E+00  0.0000E+00  0.0000E+00  0.0000E+00  0.0000E+00
     -7.435  0.6451E-01  0.4357E-02  0.4357E-02  0.4357E-02  0.0000E+00  0.0000E+00  0.0000E+00  0.0000E+00  0.0000E+00
     -7.294  0.6642E-01  0.4554E-02  0.4554E-02  0.4554E-02  0.0000E+00  0.0000E+00  0.0000E+00  0.0000E+00  0.0000E+00
     -7.154  0.6836E-01  0.4777E-02  0.4777E-02  0.4777E-02  0.0000E+00  0.0000E+00  0.0000E+00  0.0000E+00  0.0000E+00
     -7.013  0.7033E-01  0.5044E-02  0.5044E-02  0.5044E-02  0.0000E+00  0.0000E+00  0.0000E+00  0.0000E+00  0.0000E+00
     -6.873  0.7242E-01  0.5348E-02  0.5348E-02  0.5348E-02  0.0000E+00  0.0000E+00  0.0000E+00  0.0000E+00  0.0000E+00
     -6.732  0.7618E-01  0.5699E-02  0.5699E-02  0.5699E-02  0.0000E+00  0.0000E+00  0.0000E+00  0.0000E+00  0.0000E+00
     -6.592  0.8203E-01  0.6170E-02  0.6170E-02  0.6170E-02  0.0000E+00  0.0000E+00  0.0000E+00  0.0000E+00  0.0000E+00
     -6.451  0.8995E-01  0.6764E-02  0.6764E-02  0.6764E-02  0.0000E+00  0.0000E+00  0.0000E+00  0.0000E+00  0.0000E+00
     -6.311  0.9994E-01  0.7482E-02  0.7482E-02  0.7482E-02  0.0000E+00  0.0000E+00  0.0000E+00  0.0000E+00  0.0000E+00
     -6.171  0.1120E+00  0.8324E-02  0.8324E-02  0.8324E-02  0.0000E+00  0.0000E+00  0.0000E+00  0.0000E+00  0.0000E+00
     -6.030  0.9568E-01  0.7585E-02  0.7585E-02  0.7585E-02  0.0000E+00  0.0000E+00  0.0000E+00  0.0000E+00  0.0000E+00
     -5.890  0.9056E-01  0.7428E-02  0.7428E-02  0.7428E-02  0.0000E+00  0.0000E+00  0.0000E+00  0.0000E+00  0.0000E+00
     -5.749  0.9130E-01  0.7615E-02  0.7615E-02  0.7615E-02  0.0000E+00  0.0000E+00  0.0000E+00  0.0000E+00  0.0000E+00
     -5.609  0.9154E-01  0.7771E-02  0.7771E-02  0.7771E-02  0.0000E+00  0.0000E+00  0.0000E+00  0.0000E+00  0.0000E+00
     -5.468  0.9011E-01  0.7816E-02  0.7816E-02  0.7816E-02  0.0000E+00  0.0000E+00  0.0000E+00  0.0000E+00  0.0000E+00
     -5.328  0.8701E-01  0.7748E-02  0.7748E-02  0.7748E-02  0.0000E+00  0.0000E+00  0.0000E+00  0.0000E+00  0.0000E+00
     -5.187  0.8223E-01  0.7569E-02  0.7569E-02  0.7569E-02  0.0000E+00  0.0000E+00  0.0000E+00  0.0000E+00  0.0000E+00
     -5.047  0.7633E-01  0.7334E-02  0.7334E-02  0.7334E-02  0.0000E+00  0.0000E+00  0.0000E+00  0.0000E+00  0.0000E+00
     -4.907  0.8374E-01  0.8250E-02  0.8250E-02  0.8250E-02  0.0000E+00  0.0000E+00  0.0000E+00  0.0000E+00  0.0000E+00
     -4.766  0.8314E-01  0.8373E-02  0.8373E-02  0.8373E-02  0.0000E+00  0.0000E+00  0.0000E+00  0.0000E+00  0.0000E+00
     -4.626  0.8161E-01  0.8478E-02  0.8478E-02  0.8478E-02  0.0000E+00  0.0000E+00  0.0000E+00  0.0000E+00  0.0000E+00
     -4.485  0.7912E-01  0.8473E-02  0.8473E-02  0.8473E-02  0.0000E+00  0.0000E+00  0.0000E+00  0.0000E+00  0.0000E+00
     -4.345  0.7568E-01  0.8357E-02  0.8357E-02  0.8357E-02  0.0000E+00  0.0000E+00  0.0000E+00  0.0000E+00  0.0000E+00
     -4.204  0.7128E-01  0.8131E-02  0.8131E-02  0.8131E-02  0.0000E+00  0.0000E+00  0.0000E+00  0.0000E+00  0.0000E+00
     -4.064  0.6592E-01  0.7795E-02  0.7795E-02  0.7795E-02  0.0000E+00  0.0000E+00  0.0000E+00  0.0000E+00  0.0000E+00
     -3.923  0.6021E-01  0.7324E-02  0.7324E-02  0.7324E-02  0.0000E+00  0.0000E+00  0.0000E+00  0.0000E+00  0.0000E+00
     -3.783  0.5405E-01  0.6724E-02  0.6724E-02  0.6724E-02  0.0000E+00  0.0000E+00  0.0000E+00  0.0000E+00  0.0000E+00
     -3.643  0.4732E-01  0.6004E-02  0.6004E-02  0.6004E-02  0.0000E+00  0.0000E+00  0.0000E+00  0.0000E+00  0.0000E+00
     -3.502  0.4026E-01  0.5317E-02  0.5317E-02  0.5317E-02  0.0000E+00  0.0000E+00  0.0000E+00  0.0000E+00  0.0000E+00
     -3.362  0.3302E-01  0.4751E-02  0.4751E-02  0.4751E-02  0.0000E+00  0.0000E+00  0.0000E+00  0.0000E+00  0.0000E+00
     -3.221  0.2580E-01  0.4338E-02  0.4338E-02  0.4338E-02  0.0000E+00  0.0000E+00  0.0000E+00  0.0000E+00  0.0000E+00
     -3.081  0.1976E-01  0.4251E-02  0.4251E-02  0.4251E-02  0.0000E+00  0.0000E+00  0.0000E+00  0.0000E+00  0.0000E+00
     -2.940  0.1571E-01  0.4626E-02  0.4626E-02  0.4626E-02  0.0000E+00  0.0000E+00  0.0000E+00  0.0000E+00  0.0000E+00
     -2.800  0.1782E-01  0.7614E-02  0.7614E-02  0.7614E-02  0.0000E+00  0.0000E+00  0.0000E+00  0.0000E+00  0.0000E+00
     -2.659  0.2326E-01  0.1138E-01  0.1138E-01  0.1138E-01  0.0000E+00  0.0000E+00  0.0000E+00  0.0000E+00  0.0000E+00
     -2.519  0.2784E-01  0.1337E-01  0.1337E-01  0.1337E-01  0.0000E+00  0.0000E+00  0.0000E+00  0.0000E+00  0.0000E+00
     -2.379  0.3534E-01  0.1580E-01  0.1580E-01  0.1580E-01  0.0000E+00  0.0000E+00  0.0000E+00  0.0000E+00  0.0000E+00
     -2.238  0.4560E-01  0.1866E-01  0.1866E-01  0.1866E-01  0.0000E+00  0.0000E+00  0.0000E+00  0.0000E+00  0.0000E+00
     -2.098  0.5714E-01  0.2171E-01  0.2171E-01  0.2171E-01  0.0000E+00  0.0000E+00  0.0000E+00  0.0000E+00  0.0000E+00
     -1.957  0.7342E-01  0.2627E-01  0.2627E-01  0.2627E-01  0.0000E+00  0.0000E+00  0.0000E+00  0.0000E+00  0.0000E+00
     -1.817  0.9920E-01  0.3433E-01  0.3433E-01  0.3433E-01  0.0000E+00  0.0000E+00  0.0000E+00  0.0000E+00  0.0000E+00
     -1.676  0.1142E+00  0.3904E-01  0.3904E-01  0.3904E-01  0.0000E+00  0.0000E+00  0.0000E+00  0.0000E+00  0.0000E+00
     -1.536  0.1187E+00  0.4026E-01  0.4026E-01  0.4026E-01  0.0000E+00  0.0000E+00  0.0000E+00  0.0000E+00  0.0000E+00
     -1.395  0.1045E+00  0.3578E-01  0.3578E-01  0.3578E-01  0.0000E+00  0.0000E+00  0.0000E+00  0.0000E+00  0.0000E+00
     -1.255  0.8522E-01  0.3001E-01  0.3001E-01  0.3001E-01  0.0000E+00  0.0000E+00  0.0000E+00  0.0000E+00  0.0000E+00
     -1.115  0.6829E-01  0.2517E-01  0.2517E-01  0.2517E-01  0.0000E+00  0.0000E+00  0.0000E+00  0.0000E+00  0.0000E+00
     -0.974  0.5611E-01  0.2180E-01  0.2180E-01  0.2180E-01  0.0000E+00  0.0000E+00  0.0000E+00  0.0000E+00  0.0000E+00
     -0.834  0.5064E-01  0.2018E-01  0.2018E-01  0.2018E-01  0.0000E+00  0.0000E+00  0.0000E+00  0.0000E+00  0.0000E+00
     -0.693  0.4798E-01  0.1934E-01  0.1934E-01  0.1934E-01  0.0000E+00  0.0000E+00  0.0000E+00  0.0000E+00  0.0000E+00
     -0.553  0.4656E-01  0.1893E-01  0.1893E-01  0.1893E-01  0.0000E+00  0.0000E+00  0.0000E+00  0.0000E+00  0.0000E+00
     -0.412  0.4565E-01  0.1881E-01  0.1881E-01  0.1881E-01  0.0000E+00  0.0000E+00  0.0000E+00  0.0000E+00  0.0000E+00
     -0.272  0.4528E-01  0.1897E-01  0.1897E-01  0.1897E-01  0.0000E+00  0.0000E+00  0.0000E+00  0.0000E+00  0.0000E+00
     -0.131  0.4425E-01  0.1894E-01  0.1894E-01  0.1894E-01  0.0000E+00  0.0000E+00  0.0000E+00  0.0000E+00  0.0000E+00
      0.009  0.3913E-01  0.1728E-01  0.1728E-01  0.1728E-01  0.0000E+00  0.0000E+00  0.0000E+00  0.0000E+00  0.0000E+00
      0.149  0.3480E-01  0.1589E-01  0.1589E-01  0.1589E-01  0.0000E+00  0.0000E+00  0.0000E+00  0.0000E+00  0.0000E+00
      0.290  0.3126E-01  0.1477E-01  0.1477E-01  0.1477E-01  0.0000E+00  0.0000E+00  0.0000E+00  0.0000E+00  0.0000E+00
      0.430  0.2854E-01  0.1400E-01  0.1400E-01  0.1400E-01  0.0000E+00  0.0000E+00  0.0000E+00  0.0000E+00  0.0000E+00
      0.571  0.2698E-01  0.1464E-01  0.1464E-01  0.1464E-01  0.0000E+00  0.0000E+00  0.0000E+00  0.0000E+00  0.0000E+00
      0.711  0.2667E-01  0.1701E-01  0.1701E-01  0.1701E-01  0.0000E+00  0.0000E+00  0.0000E+00  0.0000E+00  0.0000E+00
      0.852  0.2717E-01  0.2105E-01  0.2105E-01  0.2105E-01  0.0000E+00  0.0000E+00  0.0000E+00  0.0000E+00  0.0000E+00
      0.992  0.2923E-01  0.2936E-01  0.2936E-01  0.2936E-01  0.0000E+00  0.0000E+00  0.0000E+00  0.0000E+00  0.0000E+00
      1.132  0.3323E-01  0.4330E-01  0.4330E-01  0.4330E-01  0.0000E+00  0.0000E+00  0.0000E+00  0.0000E+00  0.0000E+00
      1.273  0.3908E-01  0.6281E-01  0.6281E-01  0.6281E-01  0.0000E+00  0.0000E+00  0.0000E+00  0.0000E+00  0.0000E+00
      1.413  0.3257E-01  0.4276E-01  0.4276E-01  0.4276E-01  0.0000E+00  0.0000E+00  0.0000E+00  0.0000E+00  0.0000E+00
      1.554  0.3258E-01  0.4339E-01  0.4339E-01  0.4339E-01  0.0000E+00  0.0000E+00  0.0000E+00  0.0000E+00  0.0000E+00
      1.694  0.3267E-01  0.4443E-01  0.4443E-01  0.4443E-01  0.0000E+00  0.0000E+00  0.0000E+00  0.0000E+00  0.0000E+00
      1.835  0.3284E-01  0.4590E-01  0.4590E-01  0.4590E-01  0.0000E+00  0.0000E+00  0.0000E+00  0.0000E+00  0.0000E+00
      1.975  0.3185E-01  0.4610E-01  0.4610E-01  0.4610E-01  0.0000E+00  0.0000E+00  0.0000E+00  0.0000E+00  0.0000E+00
      2.116  0.2975E-01  0.4531E-01  0.4531E-01  0.4531E-01  0.0000E+00  0.0000E+00  0.0000E+00  0.0000E+00  0.0000E+00
      2.256  0.2871E-01  0.4646E-01  0.4646E-01  0.4646E-01  0.0000E+00  0.0000E+00  0.0000E+00  0.0000E+00  0.0000E+00
      2.396  0.2928E-01  0.6430E-01  0.6430E-01  0.6430E-01  0.0000E+00  0.0000E+00  0.0000E+00  0.0000E+00  0.0000E+00
      2.537  0.2690E-01  0.5454E-01  0.5454E-01  0.5454E-01  0.0000E+00  0.0000E+00  0.0000E+00  0.0000E+00  0.0000E+00
      2.677  0.2560E-01  0.5170E-01  0.5170E-01  0.5170E-01  0.0000E+00  0.0000E+00  0.0000E+00  0.0000E+00  0.0000E+00
      2.818  0.2504E-01  0.5346E-01  0.5346E-01  0.5346E-01  0.0000E+00  0.0000E+00  0.0000E+00  0.0000E+00  0.0000E+00
      2.958  0.2474E-01  0.5642E-01  0.5642E-01  0.5642E-01  0.0000E+00  0.0000E+00  0.0000E+00  0.0000E+00  0.0000E+00
      3.099  0.2459E-01  0.6044E-01  0.6044E-01  0.6044E-01  0.0000E+00  0.0000E+00  0.0000E+00  0.0000E+00  0.0000E+00
      3.239  0.2453E-01  0.6542E-01  0.6542E-01  0.6542E-01  0.0000E+00  0.0000E+00  0.0000E+00  0.0000E+00  0.0000E+00
      3.380  0.2444E-01  0.7154E-01  0.7154E-01  0.7154E-01  0.0000E+00  0.0000E+00  0.0000E+00  0.0000E+00  0.0000E+00
      3.520  0.2380E-01  0.7672E-01  0.7672E-01  0.7672E-01  0.0000E+00  0.0000E+00  0.0000E+00  0.0000E+00  0.0000E+00
      3.660  0.2295E-01  0.8117E-01  0.8117E-01  0.8117E-01  0.0000E+00  0.0000E+00  0.0000E+00  0.0000E+00  0.0000E+00
      3.801  0.2214E-01  0.9636E-01  0.9636E-01  0.9636E-01  0.0000E+00  0.0000E+00  0.0000E+00  0.0000E+00  0.0000E+00
      3.941  0.2127E-01  0.8085E-01  0.8085E-01  0.8085E-01  0.0000E+00  0.0000E+00  0.0000E+00  0.0000E+00  0.0000E+00
      4.082  0.2056E-01  0.8033E-01  0.8033E-01  0.8033E-01  0.0000E+00  0.0000E+00  0.0000E+00  0.0000E+00  0.0000E+00
      4.222  0.1991E-01  0.7997E-01  0.7997E-01  0.7997E-01  0.0000E+00  0.0000E+00  0.0000E+00  0.0000E+00  0.0000E+00
      4.363  0.1941E-01  0.8043E-01  0.8043E-01  0.8043E-01  0.0000E+00  0.0000E+00  0.0000E+00  0.0000E+00  0.0000E+00
      4.503  0.1889E-01  0.8084E-01  0.8084E-01  0.8084E-01  0.0000E+00  0.0000E+00  0.0000E+00  0.0000E+00  0.0000E+00
      4.644  0.1755E-01  0.7922E-01  0.7922E-01  0.7922E-01  0.0000E+00  0.0000E+00  0.0000E+00  0.0000E+00  0.0000E+00
      4.784  0.1569E-01  0.7706E-01  0.7706E-01  0.7706E-01  0.0000E+00  0.0000E+00  0.0000E+00  0.0000E+00  0.0000E+00
      4.924  0.1431E-01  0.7633E-01  0.7633E-01  0.7633E-01  0.0000E+00  0.0000E+00  0.0000E+00  0.0000E+00  0.0000E+00
      5.065  0.1329E-01  0.7690E-01  0.7690E-01  0.7690E-01  0.0000E+00  0.0000E+00  0.0000E+00  0.0000E+00  0.0000E+00
      5.205  0.1256E-01  0.7791E-01  0.7791E-01  0.7791E-01  0.0000E+00  0.0000E+00  0.0000E+00  0.0000E+00  0.0000E+00
      5.346  0.1181E-01  0.7943E-01  0.7943E-01  0.7943E-01  0.0000E+00  0.0000E+00  0.0000E+00  0.0000E+00  0.0000E+00
      5.486  0.1099E-01  0.8091E-01  0.8091E-01  0.8091E-01  0.0000E+00  0.0000E+00  0.0000E+00  0.0000E+00  0.0000E+00
      5.627  0.1027E-01  0.8079E-01  0.8079E-01  0.8079E-01  0.0000E+00  0.0000E+00  0.0000E+00  0.0000E+00  0.0000E+00
      5.767  0.9653E-02  0.7978E-01  0.7978E-01  0.7978E-01  0.0000E+00  0.0000E+00  0.0000E+00  0.0000E+00  0.0000E+00
      5.908  0.9086E-02  0.7833E-01  0.7833E-01  0.7833E-01  0.0000E+00  0.0000E+00  0.0000E+00  0.0000E+00  0.0000E+00
      6.048  0.8564E-02  0.7644E-01  0.7644E-01  0.7644E-01  0.0000E+00  0.0000E+00  0.0000E+00  0.0000E+00  0.0000E+00
      6.188  0.8079E-02  0.7498E-01  0.7498E-01  0.7498E-01  0.0000E+00  0.0000E+00  0.0000E+00  0.0000E+00  0.0000E+00
      6.329  0.7619E-02  0.7498E-01  0.7498E-01  0.7498E-01  0.0000E+00  0.0000E+00  0.0000E+00  0.0000E+00  0.0000E+00
      6.469  0.7195E-02  0.7455E-01  0.7455E-01  0.7455E-01  0.0000E+00  0.0000E+00  0.0000E+00  0.0000E+00  0.0000E+00
      6.610  0.6757E-02  0.7318E-01  0.7318E-01  0.7318E-01  0.0000E+00  0.0000E+00  0.0000E+00  0.0000E+00  0.0000E+00
      6.750  0.6271E-02  0.6999E-01  0.6999E-01  0.6999E-01  0.0000E+00  0.0000E+00  0.0000E+00  0.0000E+00  0.0000E+00
      6.891  0.5804E-02  0.6030E-01  0.6030E-01  0.6030E-01  0.0000E+00  0.0000E+00  0.0000E+00  0.0000E+00  0.0000E+00
      7.031  0.5435E-02  0.5052E-01  0.5052E-01  0.5052E-01  0.0000E+00  0.0000E+00  0.0000E+00  0.0000E+00  0.0000E+00
      7.172  0.5172E-02  0.4576E-01  0.4576E-01  0.4576E-01  0.0000E+00  0.0000E+00  0.0000E+00  0.0000E+00  0.0000E+00
      7.312  0.4813E-02  0.4228E-01  0.4228E-01  0.4228E-01  0.0000E+00  0.0000E+00  0.0000E+00  0.0000E+00  0.0000E+00
      7.452  0.4346E-02  0.3863E-01  0.3863E-01  0.3863E-01  0.0000E+00  0.0000E+00  0.0000E+00  0.0000E+00  0.0000E+00
      7.593  0.3912E-02  0.3502E-01  0.3502E-01  0.3502E-01  0.0000E+00  0.0000E+00  0.0000E+00  0.0000E+00  0.0000E+00
      7.733  0.3462E-02  0.3170E-01  0.3170E-01  0.3170E-01  0.0000E+00  0.0000E+00  0.0000E+00  0.0000E+00  0.0000E+00
      7.874  0.2809E-02  0.2885E-01  0.2885E-01  0.2885E-01  0.0000E+00  0.0000E+00  0.0000E+00  0.0000E+00  0.0000E+00
      8.014  0.2620E-02  0.2607E-01  0.2607E-01  0.2607E-01  0.0000E+00  0.0000E+00  0.0000E+00  0.0000E+00  0.0000E+00
      8.155  0.2461E-02  0.2351E-01  0.2351E-01  0.2351E-01  0.0000E+00  0.0000E+00  0.0000E+00  0.0000E+00  0.0000E+00