   2   2   1   0
  0.5700550E+01  0.2526314E-09  0.2526314E-09  0.2526314E-09  0.5000000E-15
   1.0000000000000000E-004
  CAR 
 fcc C                                   
     28.38246761    -13.75299491  301      9.70460712      1.00000000
    -13.753  0.0000E+00  0.0000E+00
    -13.613  0.0000E+00  0.0000E+00
    -13.472  0.0000E+00  0.0000E+00
    -13.332  0.0000E+00  0.0000E+00
    -13.191  0.0000E+00  0.0000E+00
    -13.051  0.0000E+00  0.0000E+00
    -12.910  0.0000E+00  0.0000E+00
    -12.770  0.0000E+00  0.0000E+00
    -12.629  0.0000E+00  0.0000E+00
    -12.489  0.0000E+00  0.0000E+00
    -12.348  0.0000E+00  0.0000E+00
    -12.208  0.0000E+00  0.0000E+00
    -12.068  0.0000E+00  0.0000E+00
    -11.927  0.0000E+00  0.0000E+00
    -11.787  0.0000E+00  0.0000E+00
    -11.646  0.5025E-02  0.1789E-03
    -11.506  0.2694E-01  0.2220E-02
    -11.365  0.6625E-01  0.8561E-02
    -11.225  0.6976E-01  0.1896E-01
    -11.084  0.7793E-01  0.2920E-01
    -10.944  0.8880E-01  0.4091E-01
    -10.804  0.1003E+00  0.5418E-01
    -10.663  0.1124E+00  0.6910E-01
    -10.523  0.1241E+00  0.8574E-01
    -10.382  0.1322E+00  0.1038E+00
    -10.242  0.1362E+00  0.1227E+00
    -10.101  0.1390E+00  0.1420E+00
     -9.961  0.1456E+00  0.1619E+00
     -9.820  0.1527E+00  0.1829E+00
     -9.680  0.1598E+00  0.2048E+00
     -9.539  0.1671E+00  0.2278E+00
     -9.399  0.1745E+00  0.2518E+00
     -9.259  0.1821E+00  0.2768E+00
     -9.118  0.1898E+00  0.3029E+00
     -8.978  0.1939E+00  0.3299E+00
     -8.837  0.1988E+00  0.3575E+00
     -8.697  0.2041E+00  0.3858E+00
     -8.556  0.2093E+00  0.4148E+00
     -8.416  0.2145E+00  0.4446E+00
     -8.275  0.2198E+00  0.4751E+00
     -8.135  0.2255E+00  0.5064E+00
     -7.994  0.2317E+00  0.5385E+00
     -7.854  0.2385E+00  0.5715E+00
     -7.714  0.2455E+00  0.6055E+00
     -7.573  0.2528E+00  0.6405E+00
     -7.433  0.2603E+00  0.6765E+00
     -7.292  0.2680E+00  0.7136E+00
     -7.152  0.2759E+00  0.7518E+00
     -7.011  0.2838E+00  0.7911E+00
     -6.871  0.2921E+00  0.8315E+00
     -6.730  0.3065E+00  0.8734E+00
     -6.590  0.3286E+00  0.9180E+00
     -6.450  0.3584E+00  0.9661E+00
     -6.309  0.3960E+00  0.1019E+01
     -6.169  0.4413E+00  0.1078E+01
     -6.028  0.3809E+00  0.1141E+01
     -5.888  0.3623E+00  0.1192E+01
     -5.747  0.3655E+00  0.1243E+01
     -5.607  0.3669E+00  0.1295E+01
     -5.466  0.3619E+00  0.1346E+01
     -5.326  0.3506E+00  0.1396E+01
     -5.185  0.3330E+00  0.1444E+01
     -5.045  0.3111E+00  0.1489E+01
     -4.905  0.3407E+00  0.1535E+01
     -4.764  0.3388E+00  0.1583E+01
     -4.624  0.3343E+00  0.1631E+01
     -4.483  0.3258E+00  0.1677E+01
     -4.343  0.3134E+00  0.1722E+01
     -4.202  0.2970E+00  0.1765E+01
     -4.062  0.2766E+00  0.1805E+01
     -3.921  0.2541E+00  0.1842E+01
     -3.781  0.2292E+00  0.1876E+01
     -3.640  0.2015E+00  0.1907E+01
     -3.500  0.1736E+00  0.1933E+01
     -3.360  0.1468E+00  0.1956E+01
     -3.219  0.1221E+00  0.1974E+01
     -3.079  0.1046E+00  0.1990E+01
     -2.938  0.9810E-01  0.2004E+01
     -2.798  0.1397E+00  0.2019E+01
     -2.657  0.1982E+00  0.2044E+01
     -2.517  0.2323E+00  0.2074E+01
     -2.376  0.2787E+00  0.2110E+01
     -2.236  0.3368E+00  0.2153E+01
     -2.096  0.3999E+00  0.2204E+01
     -1.955  0.4920E+00  0.2266E+01
     -1.815  0.6481E+00  0.2347E+01
     -1.674  0.7380E+00  0.2445E+01
     -1.534  0.7609E+00  0.2551E+01
     -1.393  0.6717E+00  0.2653E+01
     -1.253  0.5556E+00  0.2739E+01
     -1.112  0.4560E+00  0.2810E+01
     -0.972  0.3854E+00  0.2869E+01
     -0.831  0.3519E+00  0.2920E+01
     -0.691  0.3345E+00  0.2968E+01
     -0.551  0.3250E+00  0.3014E+01
     -0.410  0.3201E+00  0.3060E+01
     -0.270  0.3196E+00  0.3105E+01
     -0.129  0.3155E+00  0.3150E+01
      0.011  0.2838E+00  0.3192E+01
      0.152  0.2570E+00  0.3230E+01
      0.292  0.2352E+00  0.3264E+01
      0.433  0.2192E+00  0.3296E+01
      0.573  0.2216E+00  0.3327E+01
      0.714  0.2458E+00  0.3359E+01
      0.854  0.2901E+00  0.3396E+01
      0.994  0.3840E+00  0.3443E+01
      1.135  0.5429E+00  0.3507E+01
      1.275  0.7659E+00  0.3599E+01
      1.416  0.5267E+00  0.3682E+01
      1.556  0.5314E+00  0.3756E+01
      1.697  0.5404E+00  0.3831E+01
      1.837  0.5540E+00  0.3908E+01
      1.978  0.5511E+00  0.3987E+01
      2.118  0.5353E+00  0.4062E+01
      2.258  0.5422E+00  0.4138E+01
      2.399  0.7161E+00  0.4222E+01
      2.539  0.6100E+00  0.4315E+01
      2.680  0.5754E+00  0.4397E+01
      2.820  0.5881E+00  0.4479E+01
      2.961  0.6129E+00  0.4563E+01
      3.101  0.6480E+00  0.4651E+01
      3.242  0.6924E+00  0.4745E+01
      3.382  0.7468E+00  0.4846E+01
      3.523  0.7902E+00  0.4954E+01
      3.663  0.8249E+00  0.5068E+01
      3.803  0.9566E+00  0.5194E+01
      3.944  0.8093E+00  0.5314E+01
      4.084  0.7995E+00  0.5427E+01
      4.225  0.7915E+00  0.5539E+01
      4.365  0.7915E+00  0.5650E+01
      4.506  0.7912E+00  0.5762E+01
      4.646  0.7706E+00  0.5871E+01
      4.787  0.7438E+00  0.5978E+01
      4.927  0.7305E+00  0.6081E+01
      5.068  0.7289E+00  0.6183E+01
      5.208  0.7318E+00  0.6286E+01
      5.348  0.7390E+00  0.6389E+01
      5.489  0.7452E+00  0.6493E+01
      5.629  0.7390E+00  0.6598E+01
      5.770  0.7258E+00  0.6701E+01
      5.910  0.7090E+00  0.6802E+01
      6.051  0.6887E+00  0.6900E+01
      6.191  0.6719E+00  0.6995E+01
      6.332  0.6670E+00  0.7089E+01
      6.472  0.6588E+00  0.7182E+01
      6.612  0.6430E+00  0.7274E+01
      6.753  0.6123E+00  0.7362E+01
      6.893  0.5277E+00  0.7443E+01
      7.034  0.4430E+00  0.7511E+01
      7.174  0.4010E+00  0.7570E+01
      7.315  0.3694E+00  0.7624E+01
      7.455  0.3362E+00  0.7674E+01
      7.596  0.3036E+00  0.7718E+01
      7.736  0.2734E+00  0.7759E+01
      7.877  0.2464E+00  0.7795E+01
      8.017  0.2224E+00  0.7828E+01
      8.157  0.2004E+00  0.7858E+01
      8.298  0.1804E+00  0.7885E+01
      8.438  0.1627E+00  0.7909E+01
      8.579  0.1485E+00  0.7931E+01
      8.719  0.1379E+00  0.7951E+01
      8.860  0.1309E+00  0.7969E+01
      9.000  0.7078E-01  0.7986E+01
      9.141  0.4052E-01  0.7993E+01
      9.281  0.2139E-01  0.7997E+01
      9.422  0.8312E-02  0.7999E+01
      9.562  0.1303E-02  0.8000E+01
      9.702  0.0000E+00  0.8000E+01
      9.843  0.0000E+00  0.8000E+01
      9.983  0.0000E+00  0.8000E+01
     10.124  0.0000E+00  0.8000E+01
     10.264  0.0000E+00  0.8000E+01
     10.405  0.0000E+00  0.8000E+01
     10.545  0.0000E+00  0.8000E+01
     10.686  0.0000E+00  0.8000E+01
     10.826  0.0000E+00  0.8000E+01
     10.966  0.0000E+00  0.8000E+01
     11.107  0.0000E+00  0.8000E+01
     11.247  0.0000E+00  0.8000E+01
     11.388  0.0000E+00  0.8000E+01
     11.528  0.0000E+00  0.8000E+01
     11.669  0.0000E+00  0.8000E+01
     11.809  0.0000E+00  0.8000E+01
     11.950  0.0000E+00  0.8000E+01
     12.090  0.0000E+00  0.8000E+01
     12.231  0.0000E+00  0.8000E+01
     12.371  0.0000E+00  0.8000E+01
     12.511  0.0000E+00  0.8000E+01
     12.652  0.0000E+00  0.8000E+01
     12.792  0.0000E+00  0.8000E+01
     12.933  0.0000E+00  0.8000E+01
     13.073  0.0000E+00  0.8000E+01
     13.214  0.0000E+00  0.8000E+01
     13.354  0.0000E+00  0.8000E+01
     13.495  0.0000E+00  0.8000E+01
     13.635  0.0000E+00  0.8000E+01
     13.776  0.0000E+00  0.8000E+01
     13.916  0.6738E-02  0.8000E+01
     14.056  0.2716E-01  0.8003E+01
     14.197  0.5932E-01  0.8009E+01
     14.337  0.9911E-01  0.8020E+01
     14.478  0.1428E+00  0.8037E+01
     14.618  0.1713E+00  0.8059E+01
     14.759  0.2027E+00  0.8085E+01
     14.899  0.2363E+00  0.8116E+01
     15.040  0.2743E+00  0.8152E+01
     15.180  0.3166E+00  0.8193E+01
     15.320  0.3621E+00  0.8241E+01
     15.461  0.4076E+00  0.8295E+01
     15.601  0.4499E+00  0.8355E+01
     15.742  0.4874E+00  0.8421E+01
     15.882  0.5220E+00  0.8492E+01
     16.023  0.5547E+00  0.8568E+01
     16.163  0.5725E+00  0.8647E+01
     16.304  0.5918E+00  0.8729E+01
     16.444  0.6289E+00  0.8814E+01
     16.585  0.6762E+00  0.8906E+01
     16.725  0.7241E+00  0.9004E+01
     16.865  0.7806E+00  0.9110E+01
     17.006  0.8502E+00  0.9224E+01
     17.146  0.9328E+00  0.9349E+01
     17.287  0.1100E+01  0.9490E+01
     17.427  0.1311E+01  0.9660E+01
     17.568  0.1460E+01  0.9855E+01
     17.708  0.1451E+01  0.1007E+02
     17.849  0.7690E+00  0.1023E+02
     17.989  0.4425E+00  0.1031E+02
     18.130  0.4282E+00  0.1037E+02
     18.270  0.4877E+00  0.1043E+02
     18.410  0.5504E+00  0.1050E+02
     18.551  0.6310E+00  0.1059E+02
     18.691  0.7220E+00  0.1068E+02
     18.832  0.8264E+00  0.1079E+02
     18.972  0.1010E+01  0.1092E+02
     19.113  0.1323E+01  0.1108E+02
     19.253  0.1455E+01  0.1128E+02
     19.394  0.1393E+01  0.1148E+02
     19.534  0.1151E+01  0.1166E+02
     19.674  0.8203E+00  0.1180E+02
     19.815  0.7474E+00  0.1191E+02
     19.955  0.6948E+00  0.1201E+02
     20.096  0.6721E+00  0.1211E+02
     20.236  0.6455E+00  0.1220E+02
     20.377  0.9259E+00  0.1230E+02
     20.517  0.6739E+00  0.1245E+02
     20.658  0.5249E+00  0.1253E+02
     20.798  0.4759E+00  0.1260E+02
     20.939  0.4153E+00  0.1266E+02
     21.079  0.3439E+00  0.1272E+02
     21.219  0.2866E+00  0.1276E+02
     21.360  0.2766E+00  0.1280E+02
     21.500  0.3184E+00  0.1284E+02
     21.641  0.3693E+00  0.1289E+02
     21.781  0.4257E+00  0.1294E+02
     21.922  0.4889E+00  0.1301E+02
     22.062  0.7541E+00  0.1309E+02
     22.203  0.1236E+01  0.1323E+02
     22.343  0.1422E+01  0.1342E+02
     22.484  0.1325E+01  0.1362E+02
     22.624  0.1021E+01  0.1378E+02
     22.764  0.7976E+00  0.1391E+02
     22.905  0.8605E+00  0.1402E+02
     23.045  0.8515E+00  0.1414E+02
     23.186  0.8759E+00  0.1427E+02
     23.326  0.7845E+00  0.1438E+02
     23.467  0.8055E+00  0.1450E+02
     23.607  0.8233E+00  0.1461E+02
     23.748  0.8124E+00  0.1472E+02
     23.888  0.8267E+00  0.1484E+02
     24.028  0.8480E+00  0.1496E+02
     24.169  0.8834E+00  0.1508E+02
     24.309  0.1037E+01  0.1521E+02
     24.450  0.1157E+01  0.1537E+02
     24.590  0.7543E+00  0.1550E+02
     24.731  0.7230E+00  0.1560E+02
     24.871  0.6362E+00  0.1570E+02
     25.012  0.5887E+00  0.1578E+02
     25.152  0.3935E+00  0.1585E+02
     25.293  0.3164E+00  0.1590E+02
     25.433  0.2245E+00  0.1594E+02
     25.573  0.1377E+00  0.1596E+02
     25.714  0.9406E-01  0.1598E+02
     25.854  0.5869E-01  0.1599E+02
     25.995  0.3162E-01  0.1600E+02
     26.135  0.1286E-01  0.1600E+02
     26.276  0.2399E-02  0.1600E+02
     26.416  0.0000E+00  0.1600E+02
     26.557  0.0000E+00  0.1600E+02
     26.697  0.0000E+00  0.1600E+02
     26.838  0.0000E+00  0.1600E+02
     26.978  0.0000E+00  0.1600E+02
     27.118  0.0000E+00  0.1600E+02
     27.259  0.0000E+00  0.1600E+02
     27.399  0.0000E+00  0.1600E+02
     27.540  0.0000E+00  0.1600E+02
     27.680  0.0000E+00  0.1600E+02
     27.821  0.0000E+00  0.1600E+02
     27.961  0.0000E+00  0.1600E+02
     28.102  0.0000E+00  0.1600E+02
     28.242  0.0000E+00  0.1600E+02
     28.382  0.0000E+00  0.1600E+02
     28.38246761    -13.75299491  301      9.70460712      1.00000000
    -13.753  0.0000E+00  0.0000E+00  0.0000E+00  0.0000E+00  0.0000E+00  0.0000E+00  0.0000E+00  0.0000E+00  0.0000E+00
    -13.613  0.0000E+00  0.0000E+00  0.0000E+00  0.0000E+00  0.0000E+00  0.0000E+00  0.0000E+00  0.0000E+00  0.0000E+00
    -13.472  0.0000E+00  0.0000E+00  0.0000E+00  0.0000E+00  0.0000E+00  0.0000E+00  0.0000E+00  0.0000E+00  0.0000E+00
    -13.332  0.0000E+00  0.0000E+00  0.0000E+00  0.0000E+00  0.0000E+00  0.0000E+00  0.0000E+00  0.0000E+00  0.0000E+00
    -13.191  0.0000E+00  0.0000E+00  0.0000E+00  0.0000E+00  0.0000E+00  0.0000E+00  0.0000E+00  0.0000E+00  0.0000E+00
    -13.051  0.0000E+00  0.0000E+00  0.0000E+00  0.0000E+00  0.0000E+00  0.0000E+00  0.0000E+00  0.0000E+00  0.0000E+00
    -12.910  0.0000E+00  0.0000E+00  0.0000E+00  0.0000E+00  0.0000E+00  0.0000E+00  0.0000E+00  0.0000E+00  0.0000E+00
    -12.770  0.0000E+00  0.0000E+00  0.0000E+00  0.0000E+00  0.0000E+00  0.0000E+00  0.0000E+00  0.0000E+00  0.0000E+00
    -12.629  0.0000E+00  0.0000E+00  0.0000E+00  0.0000E+00  0.0000E+00  0.0000E+00  0.0000E+00  0.0000E+00  0.0000E+00
    -12.489  0.0000E+00  0.0000E+00  0.0000E+00  0.0000E+00  0.0000E+00  0.0000E+00  0.0000E+00  0.0000E+00  0.0000E+00
    -12.348  0.0000E+00  0.0000E+00  0.0000E+00  0.0000E+00  0.0000E+00  0.0000E+00  0.0000E+00  0.0000E+00  0.0000E+00
    -12.208  0.0000E+00  0.0000E+00  0.0000E+00  0.0000E+00  0.0000E+00  0.0000E+00  0.0000E+00  0.0000E+00  0.0000E+00
    -12.068  0.0000E+00  0.0000E+00  0.0000E+00  0.0000E+00  0.0000E+00  0.0000E+00  0.0000E+00  0.0000E+00  0.0000E+00
    -11.927  0.0000E+00  0.0000E+00  0.0000E+00  0.0000E+00  0.0000E+00  0.0000E+00  0.0000E+00  0.0000E+00  0.0000E+00
    -11.787  0.0000E+00  0.0000E+00  0.0000E+00  0.0000E+00  0.0000E+00  0.0000E+00  0.0000E+00  0.0000E+00  0.0000E+00
    -11.646  0.1369E-02  0.8000E-05  0.8000E-05  0.8000E-05  0.0000E+00  0.0000E+00  0.0000E+00  0.0000E+00  0.0000E+00
    -11.506  0.7339E-02  0.4289E-04  0.4289E-04  0.4289E-04  0.0000E+00  0.0000E+00  0.0000E+00  0.0000E+00  0.0000E+00
    -11.365  0.1805E-01  0.1055E-03  0.1055E-03  0.1055E-03  0.0000E+00  0.0000E+00  0.0000E+00  0.0000E+00  0.0000E+00
    -11.225  0.1883E-01  0.1995E-03  0.1995E-03  0.1995E-03  0.0000E+00  0.0000E+00  0.0000E+00  0.0000E+00  0.0000E+00
    -11.084  0.2091E-01  0.2801E-03  0.2801E-03  0.2801E-03  0.0000E+00  0.0000E+00  0.0000E+00  0.0000E+00  0.0000E+00
    -10.944  0.2375E-01  0.3643E-03  0.3643E-03  0.3643E-03  0.0000E+00  0.0000E+00  0.0000E+00  0.0000E+00  0.0000E+00
    -10.804  0.2673E-01  0.4540E-03  0.4540E-03  0.4540E-03  0.0000E+00  0.0000E+00  0.0000E+00  0.0000E+00  0.0000E+00
    -10.663  0.2987E-01  0.5493E-03  0.5493E-03  0.5493E-03  0.0000E+00  0.0000E+00  0.0000E+00  0.0000E+00  0.0000E+00
    -10.523  0.3291E-01  0.6532E-03  0.6532E-03  0.6532E-03  0.0000E+00  0.0000E+00  0.0000E+00  0.0000E+00  0.0000E+00
    -10.382  0.3489E-01  0.7781E-03  0.7781E-03  0.7781E-03  0.0000E+00  0.0000E+00  0.0000E+00  0.0000E+00  0.0000E+00
    -10.242  0.3571E-01  0.9250E-03  0.9250E-03  0.9250E-03  0.0000E+00  0.0000E+00  0.0000E+00  0.0000E+00  0.0000E+00
    -10.101  0.3621E-01  0.1078E-02  0.1078E-02  0.1078E-02  0.0000E+00  0.0000E+00  0.0000E+00  0.0000E+00  0.0000E+00
     -9.961  0.3778E-01  0.1212E-02  0.1212E-02  0.1212E-02  0.0000E+00  0.0000E+00  0.0000E+00  0.0000E+00  0.0000E+00
     -9.820  0.3947E-01  0.1346E-02  0.1346E-02  0.1346E-02  0.0000E+00  0.0000E+00  0.0000E+00  0.0000E+00  0.0000E+00
     -9.680  0.4119E-01  0.1483E-02  0.1483E-02  0.1483E-02  0.0000E+00  0.0000E+00  0.0000E+00  0.0000E+00  0.0000E+00
     -9.539  0.4293E-01  0.1624E-02  0.1624E-02  0.1624E-02  0.0000E+00  0.0000E+00  0.0000E+00  0.0000E+00  0.0000E+00
     -9.399  0.4471E-01  0.1767E-02  0.1767E-02  0.1767E-02  0.0000E+00  0.0000E+00  0.0000E+00  0.0000E+00  0.0000E+00
     -9.259  0.4653E-01  0.1913E-02  0.1913E-02  0.1913E-02  0.0000E+00  0.0000E+00  0.0000E+00  0.0000E+00  0.0000E+00
     -9.118  0.4838E-01  0.2062E-02  0.2062E-02  0.2062E-02  0.0000E+00  0.0000E+00  0.0000E+00  0.0000E+00  0.0000E+00
     -8.978  0.4918E-01  0.2261E-02  0.2261E-02  0.2261E-02  0.0000E+00  0.0000E+00  0.0000E+00  0.0000E+00  0.0000E+00
     -8.837  0.5023E-01  0.2449E-02  0.2449E-02  0.2449E-02  0.0000E+00  0.0000E+00  0.0000E+00  0.0000E+00  0.0000E+00
     -8.697  0.5138E-01  0.2636E-02  0.2636E-02  0.2636E-02  0.0000E+00  0.0000E+00  0.0000E+00  0.0000E+00  0.0000E+00
     -8.556  0.5252E-01  0.2827E-02  0.2827E-02  0.2827E-02  0.0000E+00  0.0000E+00  0.0000E+00  0.0000E+00  0.0000E+00
     -8.416  0.5365E-01  0.3021E-02  0.3021E-02  0.3021E-02  0.0000E+00  0.0000E+00  0.0000E+00  0.0000E+00  0.0000E+00
     -8.275  0.5482E-01  0.3216E-02  0.3216E-02  0.3216E-02  0.0000E+00  0.0000E+00  0.0000E+00  0.0000E+00  0.0000E+00
     -8.135  0.5612E-01  0.3409E-02  0.3409E-02  0.3409E-02  0.0000E+00  0.0000E+00  0.0000E+00  0.0000E+00  0.0000E+00
     -7.994  0.5757E-01  0.3598E-02  0.3598E-02  0.3598E-02  0.0000E+00  0.0000E+00  0.0000E+00  0.0000E+00  0.0000E+00
     -7.854  0.5919E-01  0.3784E-02  0.3784E-02  0.3784E-02  0.0000E+00  0.0000E+00  0.0000E+00  0.0000E+00  0.0000E+00
     -7.714  0.6089E-01  0.3971E-02  0.3971E-02  0.3971E-02  0.0000E+00  0.0000E+00  0.0000E+00  0.0000E+00  0.0000E+00
     -7.573  0.6266E-01  0.4162E-02  0.4162E-02  0.4162E-02  0.0000E+00  0.0000E+00  0.0000E+00  0.0000E+00  0.0000E+00
     -7.433  0.6450E-01  0.4356E-02  0.4356E-02  0.4356E-02  0.0000E+00  0.0000E+00  0.0000E+00  0.0000E+00  0.0000E+00
     -7.292  0.6641E-01  0.4554E-02  0.4554E-02  0.4554E-02  0.0000E+00  0.0000E+00  0.0000E+00  0.0000E+00  0.0000E+00
     -7.152  0.6836E-01  0.4777E-02  0.4777E-02  0.4777E-02  0.0000E+00  0.0000E+00  0.0000E+00  0.0000E+00  0.0000E+00
     -7.011  0.7033E-01  0.5043E-02  0.5043E-02  0.5043E-02  0.0000E+00  0.0000E+00  0.0000E+00  0.0000E+00  0.0000E+00
     -6.871  0.7241E-01  0.5347E-02  0.5347E-02  0.5347E-02  0.0000E+00  0.0000E+00  0.0000E+00  0.0000E+00  0.0000E+00
     -6.730  0.7618E-01  0.5699E-02  0.5699E-02  0.5699E-02  0.0000E+00  0.0000E+00  0.0000E+00  0.0000E+00  0.0000E+00
     -6.590  0.8203E-01  0.6170E-02  0.6170E-02  0.6170E-02  0.0000E+00  0.0000E+00  0.0000E+00  0.0000E+00  0.0000E+00
     -6.450  0.8994E-01  0.6764E-02  0.6764E-02  0.6764E-02  0.0000E+00  0.0000E+00  0.0000E+00  0.0000E+00  0.0000E+00
     -6.309  0.9994E-01  0.7482E-02  0.7482E-02  0.7482E-02  0.0000E+00  0.0000E+00  0.0000E+00  0.0000E+00  0.0000E+00
     -6.169  0.1120E+00  0.8323E-02  0.8323E-02  0.8323E-02  0.0000E+00  0.0000E+00  0.0000E+00  0.0000E+00  0.0000E+00
     -6.028  0.9564E-01  0.7582E-02  0.7582E-02  0.7582E-02  0.0000E+00  0.0000E+00  0.0000E+00  0.0000E+00  0.0000E+00
     -5.888  0.9055E-01  0.7428E-02  0.7428E-02  0.7428E-02  0.0000E+00  0.0000E+00  0.0000E+00  0.0000E+00  0.0000E+00
     -5.747  0.9129E-01  0.7614E-02  0.7614E-02  0.7614E-02  0.0000E+00  0.0000E+00  0.0000E+00  0.0000E+00  0.0000E+00
     -5.607  0.9154E-01  0.7770E-02  0.7770E-02  0.7770E-02  0.0000E+00  0.0000E+00  0.0000E+00  0.0000E+00  0.0000E+00
     -5.466  0.9010E-01  0.7815E-02  0.7815E-02  0.7815E-02  0.0000E+00  0.0000E+00  0.0000E+00  0.0000E+00  0.0000E+00
     -5.326  0.8700E-01  0.7747E-02  0.7747E-02  0.7747E-02  0.0000E+00  0.0000E+00  0.0000E+00  0.0000E+00  0.0000E+00
     -5.185  0.8222E-01  0.7568E-02  0.7568E-02  0.7568E-02  0.0000E+00  0.0000E+00  0.0000E+00  0.0000E+00  0.0000E+00
     -5.045  0.7633E-01  0.7333E-02  0.7333E-02  0.7333E-02  0.0000E+00  0.0000E+00  0.0000E+00  0.0000E+00  0.0000E+00
     -4.905  0.8374E-01  0.8250E-02  0.8250E-02  0.8250E-02  0.0000E+00  0.0000E+00  0.0000E+00  0.0000E+00  0.0000E+00
     -4.764  0.8314E-01  0.8372E-02  0.8372E-02  0.8372E-02  0.0000E+00  0.0000E+00  0.0000E+00  0.0000E+00  0.0000E+00
     -4.624  0.8160E-01  0.8477E-02  0.8477E-02  0.8477E-02  0.0000E+00  0.0000E+00  0.0000E+00  0.0000E+00  0.0000E+00
     -4.483  0.7911E-01  0.8472E-02  0.8472E-02  0.8472E-02  0.0000E+00  0.0000E+00  0.0000E+00  0.0000E+00  0.0000E+00
     -4.343  0.7567E-01  0.8356E-02  0.8356E-02  0.8356E-02  0.0000E+00  0.0000E+00  0.0000E+00  0.0000E+00  0.0000E+00
     -4.202  0.7127E-01  0.8130E-02  0.8130E-02  0.8130E-02  0.0000E+00  0.0000E+00  0.0000E+00  0.0000E+00  0.0000E+00
     -4.062  0.6591E-01  0.7794E-02  0.7794E-02  0.7794E-02  0.0000E+00  0.0000E+00  0.0000E+00  0.0000E+00  0.0000E+00
     -3.921  0.6020E-01  0.7323E-02  0.7323E-02  0.7323E-02  0.0000E+00  0.0000E+00  0.0000E+00  0.0000E+00  0.0000E+00
     -3.781  0.5404E-01  0.6723E-02  0.6723E-02  0.6723E-02  0.0000E+00  0.0000E+00  0.0000E+00  0.0000E+00  0.0000E+00
     -3.640  0.4731E-01  0.6002E-02  0.6002E-02  0.6002E-02  0.0000E+00  0.0000E+00  0.0000E+00  0.0000E+00  0.0000E+00
     -3.500  0.4025E-01  0.5317E-02  0.5317E-02  0.5317E-02  0.0000E+00  0.0000E+00  0.0000E+00  0.0000E+00  0.0000E+00
     -3.360  0.3301E-01  0.4752E-02  0.4752E-02  0.4752E-02  0.0000E+00  0.0000E+00  0.0000E+00  0.0000E+00  0.0000E+00
     -3.219  0.2580E-01  0.4339E-02  0.4339E-02  0.4339E-02  0.0000E+00  0.0000E+00  0.0000E+00  0.0000E+00  0.0000E+00
     -3.079  0.1976E-01  0.4253E-02  0.4253E-02  0.4253E-02  0.0000E+00  0.0000E+00  0.0000E+00  0.0000E+00  0.0000E+00
     -2.938  0.1571E-01  0.4629E-02  0.4629E-02  0.4629E-02  0.0000E+00  0.0000E+00  0.0000E+00  0.0000E+00  0.0000E+00
     -2.798  0.1785E-01  0.7633E-02  0.7633E-02  0.7633E-02  0.0000E+00  0.0000E+00  0.0000E+00  0.0000E+00  0.0000E+00
     -2.657  0.2327E-01  0.1138E-01  0.1138E-01  0.1138E-01  0.0000E+00  0.0000E+00  0.0000E+00  0.0000E+00  0.0000E+00
     -2.517  0.2785E-01  0.1337E-01  0.1337E-01  0.1337E-01  0.0000E+00  0.0000E+00  0.0000E+00  0.0000E+00  0.0000E+00
     -2.376  0.3535E-01  0.1581E-01  0.1581E-01  0.1581E-01  0.0000E+00  0.0000E+00  0.0000E+00  0.0000E+00  0.0000E+00
     -2.236  0.4561E-01  0.1866E-01  0.1866E-01  0.1866E-01  0.0000E+00  0.0000E+00  0.0000E+00  0.0000E+00  0.0000E+00
     -2.096  0.5715E-01  0.2171E-01  0.2171E-01  0.2171E-01  0.0000E+00  0.0000E+00  0.0000E+00  0.0000E+00  0.0000E+00
     -1.955  0.7345E-01  0.2627E-01  0.2627E-01  0.2627E-01  0.0000E+00  0.0000E+00  0.0000E+00  0.0000E+00  0.0000E+00
     -1.815  0.9922E-01  0.3434E-01  0.3434E-01  0.3434E-01  0.0000E+00  0.0000E+00  0.0000E+00  0.0000E+00  0.0000E+00
     -1.674  0.1142E+00  0.3903E-01  0.3903E-01  0.3903E-01  0.0000E+00  0.0000E+00  0.0000E+00  0.0000E+00  0.0000E+00
     -1.534  0.1186E+00  0.4025E-01  0.4025E-01  0.4025E-01  0.0000E+00  0.0000E+00  0.0000E+00  0.0000E+00  0.0000E+00
     -1.393  0.1045E+00  0.3576E-01  0.3576E-01  0.3576E-01  0.0000E+00  0.0000E+00  0.0000E+00  0.0000E+00  0.0000E+00
     -1.253  0.8519E-01  0.3000E-01  0.3000E-01  0.3000E-01  0.0000E+00  0.0000E+00  0.0000E+00  0.0000E+00  0.0000E+00
     -1.112  0.6826E-01  0.2516E-01  0.2516E-01  0.2516E-01  0.0000E+00  0.0000E+00  0.0000E+00  0.0000E+00  0.0000E+00
     -0.972  0.5609E-01  0.2179E-01  0.2179E-01  0.2179E-01  0.0000E+00  0.0000E+00  0.0000E+00  0.0000E+00  0.0000E+00
     -0.831  0.5063E-01  0.2017E-01  0.2017E-01  0.2017E-01  0.0000E+00  0.0000E+00  0.0000E+00  0.0000E+00  0.0000E+00
     -0.691  0.4798E-01  0.1933E-01  0.1933E-01  0.1933E-01  0.0000E+00  0.0000E+00  0.0000E+00  0.0000E+00  0.0000E+00
     -0.551  0.4655E-01  0.1893E-01  0.1893E-01  0.1893E-01  0.0000E+00  0.0000E+00  0.0000E+00  0.0000E+00  0.0000E+00
     -0.410  0.4565E-01  0.1881E-01  0.1881E-01  0.1881E-01  0.0000E+00  0.0000E+00  0.0000E+00  0.0000E+00  0.0000E+00
     -0.270  0.4528E-01  0.1897E-01  0.1897E-01  0.1897E-01  0.0000E+00  0.0000E+00  0.0000E+00  0.0000E+00  0.0000E+00
     -0.129  0.4423E-01  0.1893E-01  0.1893E-01  0.1893E-01  0.0000E+00  0.0000E+00  0.0000E+00  0.0000E+00  0.0000E+00
      0.011  0.3912E-01  0.1728E-01  0.1728E-01  0.1728E-01  0.0000E+00  0.0000E+00  0.0000E+00  0.0000E+00  0.0000E+00
      0.152  0.3479E-01  0.1589E-01  0.1589E-01  0.1589E-01  0.0000E+00  0.0000E+00  0.0000E+00  0.0000E+00  0.0000E+00
      0.292  0.3126E-01  0.1477E-01  0.1477E-01  0.1477E-01  0.0000E+00  0.0000E+00  0.0000E+00  0.0000E+00  0.0000E+00
      0.433  0.2853E-01  0.1400E-01  0.1400E-01  0.1400E-01  0.0000E+00  0.0000E+00  0.0000E+00  0.0000E+00  0.0000E+00
      0.573  0.2698E-01  0.1464E-01  0.1464E-01  0.1464E-01  0.0000E+00  0.0000E+00  0.0000E+00  0.0000E+00  0.0000E+00
      0.714  0.2667E-01  0.1702E-01  0.1702E-01  0.1702E-01  0.0000E+00  0.0000E+00  0.0000E+00  0.0000E+00  0.0000E+00
      0.854  0.2717E-01  0.2107E-01  0.2107E-01  0.2107E-01  0.0000E+00  0.0000E+00  0.0000E+00  0.0000E+00  0.0000E+00
      0.994  0.2924E-01  0.2940E-01  0.2940E-01  0.2940E-01  0.0000E+00  0.0000E+00  0.0000E+00  0.0000E+00  0.0000E+00
      1.135  0.3326E-01  0.4336E-01  0.4336E-01  0.4336E-01  0.0000E+00  0.0000E+00  0.0000E+00  0.0000E+00  0.0000E+00
      1.275  0.3911E-01  0.6289E-01  0.6289E-01  0.6289E-01  0.0000E+00  0.0000E+00  0.0000E+00  0.0000E+00  0.0000E+00
      1.416  0.3257E-01  0.4275E-01  0.4275E-01  0.4275E-01  0.0000E+00  0.0000E+00  0.0000E+00  0.0000E+00  0.0000E+00
      1.556  0.3258E-01  0.4338E-01  0.4338E-01  0.4338E-01  0.0000E+00  0.0000E+00  0.0000E+00  0.0000E+00  0.0000E+00
      1.697  0.3267E-01  0.4443E-01  0.4443E-01  0.4443E-01  0.0000E+00  0.0000E+00  0.0000E+00  0.0000E+00  0.0000E+00
      1.837  0.3284E-01  0.4589E-01  0.4589E-01  0.4589E-01  0.0000E+00  0.0000E+00  0.0000E+00  0.0000E+00  0.0000E+00
      1.978  0.3184E-01  0.4608E-01  0.4608E-01  0.4608E-01  0.0000E+00  0.0000E+00  0.0000E+00  0.0000E+00  0.0000E+00
      2.118  0.2975E-01  0.4531E-01  0.4531E-01  0.4531E-01  0.0000E+00  0.0000E+00  0.0000E+00  0.0000E+00  0.0000E+00
      2.258  0.2871E-01  0.4646E-01  0.4646E-01  0.4646E-01  0.0000E+00  0.0000E+00  0.0000E+00  0.0000E+00  0.0000E+00
      2.399  0.2927E-01  0.6423E-01  0.6423E-01  0.6423E-01  0.0000E+00  0.0000E+00  0.0000E+00  0.0000E+00  0.0000E+00
      2.539  0.2689E-01  0.5451E-01  0.5451E-01  0.5451E-01  0.0000E+00  0.0000E+00  0.0000E+00  0.0000E+00  0.0000E+00
      2.680  0.2560E-01  0.5169E-01  0.5169E-01  0.5169E-01  0.0000E+00  0.0000E+00  0.0000E+00  0.0000E+00  0.0000E+00
      2.820  0.2504E-01  0.5346E-01  0.5346E-01  0.5346E-01  0.0000E+00  0.0000E+00  0.0000E+00  0.0000E+00  0.0000E+00
      2.961  0.2474E-01  0.5642E-01  0.5642E-01  0.5642E-01  0.0000E+00  0.0000E+00  0.0000E+00  0.0000E+00  0.0000E+00
      3.101  0.2459E-01  0.6044E-01  0.6044E-01  0.6044E-01  0.0000E+00  0.0000E+00  0.0000E+00  0.0000E+00  0.0000E+00
      3.242  0.2453E-01  0.6543E-01  0.6543E-01  0.6543E-01  0.0000E+00  0.0000E+00  0.0000E+00  0.0000E+00  0.0000E+00
      3.382  0.2445E-01  0.7155E-01  0.7155E-01  0.7155E-01  0.0000E+00  0.0000E+00  0.0000E+00  0.0000E+00  0.0000E+00
      3.523  0.2380E-01  0.7671E-01  0.7671E-01  0.7671E-01  0.0000E+00  0.0000E+00  0.0000E+00  0.0000E+00  0.0000E+00
      3.663  0.2295E-01  0.8117E-01  0.8117E-01  0.8117E-01  0.0000E+00  0.0000E+00  0.0000E+00  0.0000E+00  0.0000E+00
      3.803  0.2213E-01  0.9626E-01  0.9626E-01  0.9626E-01  0.0000E+00  0.0000E+00  0.0000E+00  0.0000E+00  0.0000E+00
      3.944  0.2127E-01  0.8083E-01  0.8083E-01  0.8083E-01  0.0000E+00  0.0000E+00  0.0000E+00  0.0000E+00  0.0000E+00
      4.084  0.2056E-01  0.8032E-01  0.8032E-01  0.8032E-01  0.0000E+00  0.0000E+00  0.0000E+00  0.0000E+00  0.0000E+00
      4.225  0.1991E-01  0.7995E-01  0.7995E-01  0.7995E-01  0.0000E+00  0.0000E+00  0.0000E+00  0.0000E+00  0.0000E+00
      4.365  0.1941E-01  0.8042E-01  0.8042E-01  0.8042E-01  0.0000E+00  0.0000E+00  0.0000E+00  0.0000E+00  0.0000E+00
      4.506  0.1889E-01  0.8082E-01  0.8082E-01  0.8082E-01  0.0000E+00  0.0000E+00  0.0000E+00  0.0000E+00  0.0000E+00
      4.646  0.1755E-01  0.7920E-01  0.7920E-01  0.7920E-01  0.0000E+00  0.0000E+00  0.0000E+00  0.0000E+00  0.0000E+00
      4.787  0.1569E-01  0.7704E-01  0.7704E-01  0.7704E-01  0.0000E+00  0.0000E+00  0.0000E+00  0.0000E+00  0.0000E+00
      4.927  0.1431E-01  0.7631E-01  0.7631E-01  0.7631E-01  0.0000E+00  0.0000E+00  0.0000E+00  0.0000E+00  0.0000E+00
      5.068  0.1329E-01  0.7689E-01  0.7689E-01  0.7689E-01  0.0000E+00  0.0000E+00  0.0000E+00  0.0000E+00  0.0000E+00
      5.208  0.1255E-01  0.7790E-01  0.7790E-01  0.7790E-01  0.0000E+00  0.0000E+00  0.0000E+00  0.0000E+00  0.0000E+00
      5.348  0.1181E-01  0.7942E-01  0.7942E-01  0.7942E-01  0.0000E+00  0.0000E+00  0.0000E+00  0.0000E+00  0.0000E+00
      5.489  0.1099E-01  0.8089E-01  0.8089E-01  0.8089E-01  0.0000E+00  0.0000E+00  0.0000E+00  0.0000E+00  0.0000E+00
      5.629  0.1027E-01  0.8077E-01  0.8077E-01  0.8077E-01  0.0000E+00  0.0000E+00  0.0000E+00  0.0000E+00  0.0000E+00
      5.770  0.9653E-02  0.7976E-01  0.7976E-01  0.7976E-01  0.0000E+00  0.0000E+00  0.0000E+00  0.0000E+00  0.0000E+00
      5.910  0.9086E-02  0.7831E-01  0.7831E-01  0.7831E-01  0.0000E+00  0.0000E+00  0.0000E+00  0.0000E+00  0.0000E+00
      6.051  0.8563E-02  0.7642E-01  0.7642E-01  0.7642E-01  0.0000E+00  0.0000E+00  0.0000E+00  0.0000E+00  0.0000E+00
      6.191  0.8078E-02  0.7496E-01  0.7496E-01  0.7496E-01  0.0000E+00  0.0000E+00  0.0000E+00  0.0000E+00  0.0000E+00
      6.332  0.7619E-02  0.7496E-01  0.7496E-01  0.7496E-01  0.0000E+00  0.0000E+00  0.0000E+00  0.0000E+00  0.0000E+00
      6.472  0.7195E-02  0.7454E-01  0.7454E-01  0.7454E-01  0.0000E+00  0.0000E+00  0.0000E+00  0.0000E+00  0.0000E+00
      6.612  0.6757E-02  0.7316E-01  0.7316E-01  0.7316E-01  0.0000E+00  0.0000E+00  0.0000E+00  0.0000E+00  0.0000E+00
      6.753  0.6270E-02  0.6997E-01  0.6997E-01  0.6997E-01  0.0000E+00  0.0000E+00  0.0000E+00  0.0000E+00  0.0000E+00
      6.893  0.5804E-02  0.6028E-01  0.6028E-01  0.6028E-01  0.0000E+00  0.0000E+00  0.0000E+00  0.0000E+00  0.0000E+00
      7.034  0.5435E-02  0.5051E-01  0.5051E-01  0.5051E-01  0.0000E+00  0.0000E+00  0.0000E+00  0.0000E+00  0.0000E+00
      7.174  0.5172E-02  0.4575E-01  0.4575E-01  0.4575E-01  0.0000E+00  0.0000E+00  0.0000E+00  0.0000E+00  0.0000E+00
      7.315  0.4813E-02  0.4227E-01  0.4227E-01  0.4227E-01  0.0000E+00  0.0000E+00  0.0000E+00  0.0000E+00  0.0000E+00
      7.455  0.4345E-02  0.3862E-01  0.3862E-01  0.3862E-01  0.0000E+00  0.0000E+00  0.0000E+00  0.0000E+00  0.0000E+00
      7.596  0.3912E-02  0.3502E-01  0.3502E-01  0.3502E-01  0.0000E+00  0.0000E+00  0.0000E+00  0.0000E+00  0.0000E+00
      7.736  0.3462E-02  0.3169E-01  0.3169E-01  0.3169E-01  0.0000E+00  0.0000E+00  0.0000E+00  0.0000E+00  0.0000E+00
      7.877  0.2809E-02  0.2884E-01  0.2884E-01  0.2884E-01  0.0000E+00  0.0000E+00  0.0000E+00  0.0000E+00  0.0000E+00
      8.017  0.2620E-02  0.2607E-01  0.2607E-01  0.2607E-01  0.0000E+00  0.0000E+00  0.0000E+00  0.0000E+00  0.0000E+00
      8.157  0.2461E-02  0.2351E-01  0.2351E-01  0.2351E-01  0.0000E+00  0.0000E+00  0.0000E+00  0.0000E+00  0.0000E+00