    2    2    1    1
  0.5700550E+01  0.2526314E-09  0.2526314E-09  0.2526314E-09  0.5000000E-15
   1.0000000000000000E-004
  CAR 
 fcc C                                   
      8     29      8

  0.1262379E-14  0.1262379E-14  0.1262379E-14  0.1953125E-02
      1        -11.754443   1.000000
      2          9.651000   1.000000
      3          9.651000   1.000000
      4          9.651001   1.000000
      5         15.228462   0.000000
      6         15.228462   0.000000
      7         15.228463   0.000000
      8         22.867717   0.000000

  0.1250000E+00  0.1269818E-14  0.1262414E-14  0.1562500E-01
      1        -11.323969   1.000000
      2          7.245966   1.000000
      3          9.002429   1.000000
      4          9.002430   1.000000
      5         16.082013   0.000000
      6         16.082014   0.000000
      7         16.501868   0.000000
      8         23.243529   0.000000

  0.2500000E+00  0.1262879E-14  0.1291395E-14  0.1562500E-01
      1        -10.045918   1.000000
      2          3.084647   1.000000
      3          7.914380   1.000000
      4          7.914381   1.000000
      5         17.417319   0.000000
      6         17.417320   0.000000
      7         17.750251   0.000000
      8         24.204564   0.000000

  0.3750000E+00  0.1276756E-14  0.1256403E-14  0.1562500E-01
      1         -7.988999   1.000000
      2         -0.981400   1.000000
      3          7.135683   1.000000
      4          7.135684   1.000000
      5         18.014524   0.000000
      6         18.014525   0.000000
      7         18.286308   0.000000
      8         25.058758   0.000000

  0.5000000E+00  0.1304512E-14  0.1292106E-14  0.7812500E-02
      1         -6.009412   1.000000
      2         -3.664361   1.000000
      3          6.864462   1.000000
      4          6.864463   1.000000
      5         18.090004   0.000000
      6         18.090005   0.000000
      7         18.431506   0.000000
      8         25.302612   0.000000

  0.1250000E+00  0.1250000E+00  0.1262769E-14  0.1171875E-01
      1        -11.180670   1.000000
      2          7.935659   1.000000
      3          7.935659   1.000000
      4          8.326378   1.000000
      5         14.819118   0.000000
      6         17.431720   0.000000
      7         17.431721   0.000000
      8         22.874494   0.000000

  0.2500000E+00  0.1250000E+00  0.1256403E-14  0.4687500E-01
      1        -10.185351   1.000000
      2          4.582177   1.000000
      3          6.791257   1.000000
      4          7.626627   1.000000
      5         15.473041   0.000000
      6         18.950135   0.000000
      7         19.041311   0.000000
      8         22.453562   0.000000

  0.3750000E+00  0.1250000E+00  0.1263480E-14  0.4687500E-01
      1         -8.381004   1.000000
      2          0.570477   1.000000
      3          6.146348   1.000000
      4          6.465759   1.000000
      5         16.637295   0.000000
      6         19.668763   0.000000
      7         19.708543   0.000000
      8         23.084133   0.000000

  0.5000000E+00  0.1250000E+00  0.1300923E-14  0.4687500E-01
      1         -6.062159   1.000000
      2         -2.851550   1.000000
      3          5.518005   1.000000
      4          6.144646   1.000000
      5         17.246838   0.000000
      6         19.437553   0.000000
      7         19.869617   0.000000
      8         24.778723   0.000000

 -0.3750000E+00  0.1250000E+00  0.1190218E-14  0.4687500E-01
      1         -6.826552   1.000000
      2         -1.853771   1.000000
      3          5.089377   1.000000
      4          6.756986   1.000000
      5         17.829763   0.000000
      6         18.791185   0.000000
      7         19.776621   0.000000
      8         24.978617   0.000000

 -0.2500000E+00  0.1250000E+00  0.1267989E-14  0.4687500E-01
      1         -9.067839   1.000000
      2          1.915530   1.000000
      3          5.305559   1.000000
      4          7.821137   1.000000
      5         17.748626   0.000000
      6         18.259970   0.000000
      7         19.217473   0.000000
      8         23.739974   0.000000

 -0.1250000E+00  0.1250000E+00  0.1257515E-14  0.2343750E-01
      1        -10.610895   1.000000
      2          5.680141   1.000000
      3          6.416632   1.000000
      4          8.897538   1.000000
      5         16.381325   0.000000
      6         17.682283   0.000000
      7         17.791135   0.000000
      8         23.354771   0.000000

  0.2500000E+00  0.2500000E+00  0.1263480E-14  0.1171875E-01
      1         -9.478668   1.000000
      2          5.142302   1.000000
      3          5.550791   1.000000
      4          5.550792   1.000000
      5         14.083524   0.000000
      6         19.867193   0.000000
      7         21.192170   0.000000
      8         21.192171   0.000000

  0.3750000E+00  0.2500000E+00  0.1242801E-14  0.4687500E-01
      1         -7.954681   1.000000
      2          2.156958   1.000000
      3          4.451000   1.000000
      4          4.824045   1.000000
      5         14.811276   0.000000
      6         18.964886   0.000000
      7         22.485749   0.000000
      8         22.506650   0.000000

  0.5000000E+00  0.2500000E+00  0.1336626E-14  0.4687500E-01
      1         -5.757761   1.000000
      2         -1.096913   1.000000
      3          2.938598   1.000000
      4          4.799084   1.000000
      5         15.716282   0.000000
      6         21.046599   0.000000
      7         22.410786   0.000000
      8         22.909911   0.000000

 -0.3750000E+00  0.2500000E+00  0.1190573E-14  0.4687500E-01
      1         -5.065391   1.000000
      2         -1.892161   1.000000
      3          1.940523   1.000000
      4          5.469137   1.000000
      5         16.482580   0.000000
      6         21.380625   0.000000
      7         22.843224   0.000000
      8         24.382521   0.000000

 -0.2500000E+00  0.2500000E+00  0.1232073E-14  0.2343750E-01
      1         -7.304829   1.000000
      2          0.977555   1.000000
      3          2.079637   1.000000
      4          6.654483   1.000000
      5         17.556784   0.000000
      6         19.623133   0.000000
      7         21.952940   0.000000
      8         23.491154   0.000000

  0.3750000E+00  0.3750000E+00  0.1306259E-14  0.1171875E-01
      1         -6.719789   1.000000
      2          1.087871   1.000000
      3          3.940707   1.000000
      4          3.940708   1.000000
      5         13.774919   0.000000
      6         16.368258   0.000000
      7         24.705363   0.000000
      8         24.705365   0.000000

  0.5000000E+00  0.3750000E+00  0.1229198E-14  0.4687500E-01
      1         -4.766047   1.000000
      2         -0.991027   1.000000
      3          2.345802   1.000000
      4          3.758983   1.000000
      5         14.615505   0.000000
      6         16.640820   0.000000
      7         25.232583   0.000000
      8         25.490017   0.000000

 -0.3750000E+00  0.3750000E+00  0.1166439E-14  0.2343750E-01
      1         -3.293844   1.000000
      2         -2.046578   1.000000
      3          0.384390   1.000000
      4          4.314252   1.000000
      5         15.316960   0.000000
      6         20.359577   0.000000
      7         23.955272   0.000000
      8         25.199410   0.000000

  0.5000000E+00  0.5000000E+00  0.1295268E-14  0.5859375E-02
      1         -3.075526   1.000000
      2         -3.075526   1.000000
      3          3.384078   1.000000
      4          3.384078   1.000000
      5         14.401878   0.000000
      6         14.401878   0.000000
      7         26.378410   0.000000
      8         26.378411   0.000000

  0.3750000E+00  0.2500000E+00  0.1250000E+00  0.4687500E-01
      1         -8.924772   1.000000
      2          3.161034   1.000000
      3          4.176800   1.000000
      4          6.776672   1.000000
      5         16.204645   0.000000
      6         19.655847   0.000000
      7         21.179743   0.000000
      8         21.355576   0.000000

  0.5000000E+00  0.2500000E+00  0.1250000E+00  0.9375000E-01
      1         -6.908067   1.000000
      2         -0.159627   1.000000
      3          3.398501   1.000000
      4          5.590054   1.000000
      5         17.596599   0.000000
      6         19.254403   0.000000
      7         21.982456   0.000000
      8         22.945764   0.000000

 -0.3750000E+00  0.2500000E+00  0.1250000E+00  0.4687500E-01
      1         -5.001335   1.000000
      2         -2.661148   1.000000
      3          3.362064   1.000000
      4          4.987753   1.000000
      5         17.936002   0.000000
      6         19.057052   0.000000
      7         22.635148   0.000000
      8         24.455117   0.000000

  0.5000000E+00  0.3750000E+00  0.1250000E+00  0.4687500E-01
      1         -6.213368   1.000000
      2          0.661879   1.000000
      3          2.692181   1.000000
      4          3.741544   1.000000
      5         15.956750   0.000000
      6         18.229924   0.000000
      7         22.586736   0.000000
      8         24.703594   0.000000

 -0.3750000E+00  0.3750000E+00  0.1250000E+00  0.9375000E-01
      1         -4.032381   1.000000
      2         -1.482355   1.000000
      3          1.278905   1.000000
      4          3.335779   1.000000
      5         17.163077   0.000000
      6         20.522414   0.000000
      7         22.123065   0.000000
      8         24.509470   0.000000

 -0.2500000E+00  0.3750000E+00  0.1250000E+00  0.4687500E-01
      1         -4.819605   1.000000
      2         -0.725233   1.000000
      3          0.826930   1.000000
      4          4.205095   1.000000
      5         18.000814   0.000000
      6         20.382605   0.000000
      7         22.654876   0.000000
      8         24.115455   0.000000

 -0.3750000E+00  0.5000000E+00  0.1250000E+00  0.2343750E-01
      1         -2.740731   1.000000
      2         -2.740731   1.000000
      3          2.374200   1.000000
      4          2.374201   1.000000
      5         16.506727   0.000000
      6         16.506727   0.000000
      7         25.141457   0.000000
      8         25.141458   0.000000

 -0.2500000E+00  0.5000000E+00  0.2500000E+00  0.1171875E-01
      1         -2.292713   1.000000
      2         -2.292713   1.000000
      3          1.373135   1.000000
      4          1.373135   1.000000
      5         20.252200   0.000000
      6         20.252201   0.000000
      7         21.903306   0.000000
      8         21.903306   0.000000
