 vasp.6.4.2 20Jul23 (build Oct 18 2023 12:49:41) complex                         
 executed on             LinuxGNU date 2025.06.06  09:50:20
 running    4 mpi-ranks, with    1 threads/rank, on    1 nodes
 distrk:  each k-point on    4 cores,    1 groups
 distr:  one band on NCORE=   1 cores,    4 groups


--------------------------------------------------------------------------------------------------------


 INCAR:
   SYSTEM = fcc C
   ISMEAR = -5
   ENCUT = 900
   LORBIT = 11
   NCORE = 1
   NSIM = 4

 POTCAR:    PAW_PBE C 08Apr2002                   
 POTCAR:    PAW_PBE C 08Apr2002                   
   SHA256 =  253f7b50bb8d59471dbedb8285d89021f4a42ed1a2c5d38a03a736e69125dd95 C/POTCAR              
   COPYR  = (c) Copyright 08Apr2002 Georg Kresse                                                    
   COPYR  = This file is part of the software VASP. Any use, copying, and all other rights are regul
   COPYR  = If you do not have a valid VASP license, you may not use, copy or distribute this file. 
   VRHFIN =C: s2p2                                                                                  
   LEXCH  = PE                                                                                      
   EATOM  =   147.1560 eV,   10.8157 Ry                                                             
                                                                                                    
   TITEL  = PAW_PBE C 08Apr2002                                                                     
   LULTRA =        F    use ultrasoft PP ?                                                          
   IUNSCR =        1    unscreen: 0-lin 1-nonlin 2-no                                               
   RPACOR =    1.200    partial core radius                                                         
   POMASS =   12.011; ZVAL   =    4.000    mass and valenz                                          
   RCORE  =    1.500    outmost cutoff radius                                                       
   RWIGS  =    1.630; RWIGS  =    0.863    wigner-seitz radius (au A)                               
   ENMAX  =  400.000; ENMIN  =  300.000 eV                                                          
   ICORE  =        2    local potential                                                             
   LCOR   =        T    correct aug charges                                                         
   LPAW   =        T    paw PP                                                                      
   EAUG   =  644.873                                                                                
   DEXC   =    0.000                                                                                
   RMAX   =    1.529    core radius for proj-oper                                                   
   RAUG   =    1.300    factor for augmentation sphere                                              
   RDEP   =    1.501    radius for radial grids                                                     
   RDEPT  =    1.300    core radius for aug-charge                                                  
                                                                                                    
   Atomic configuration                                                                             
    4 entries                                                                                       
     n  l   j            E        occ.                                                              
     1  0  0.50      -273.3789   2.0000                                                             
     2  0  0.50       -13.7508   2.0000                                                             
     2  1  0.50        -5.2854   2.0000                                                             
     3  2  1.50        -5.4423   0.0000                                                             
   Description                                                                                      
     l       E           TYP  RCUT    TYP  RCUT                                                     
     0    -13.7508458     23  1.200                                                                 
     0     -8.2022199     23  1.200                                                                 
     1     -5.2854383     23  1.500                                                                 
     1     34.0145650     23  1.500                                                                 
     2     -5.4423304      7  1.500                                                                 
  local pseudopotential read in
  partial core-charges read in
  partial kinetic energy density read in
  atomic valenz-charges read in
  non local Contribution for L=           0  read in
    real space projection operators read in
  non local Contribution for L=           0  read in
    real space projection operators read in
  non local Contribution for L=           1  read in
    real space projection operators read in
  non local Contribution for L=           1  read in
    real space projection operators read in
    PAW grid and wavefunctions read in

   number of l-projection  operators is LMAX  =           4
   number of lm-projection operators is LMMAX =           8

  PAW_PBE C 08Apr2002                   :
 energy of atom  1       EATOM= -147.1560
 kinetic energy error for atom=    0.0010 (will be added to EATOM!!)


 POSCAR: C
  positions in direct lattice
  No initial velocities read in
 exchange correlation table for  LEXCH =        8
   RHO(1)=    0.500       N(1)  =     2000
   RHO(2)=  100.500       N(2)  =     4000



--------------------------------------------------------------------------------------------------------


 ion  position               nearest neighbor table
   1  0.000  0.000  0.000-   2 1.55   2 1.55   2 1.55   2 1.55
   2  0.250  0.250  0.250-   1 1.55   1 1.55   1 1.55   1 1.55

  LATTYP: Found a face centered cubic cell.
 ALAT       =     3.5727468809
  
  Lattice vectors:
  
 A1 = (   2.5263135470,   0.0000000000,   0.0000000000)
 A2 = (   1.2631567735,   2.1878517096,   0.0000000000)
 A3 = (   1.2631567735,   0.7292839032,   2.0627263735)


Analysis of symmetry for initial positions (statically):
=====================================================================
 Subroutine PRICEL returns:
 Original cell was already a primitive cell.
 

 Routine SETGRP: Setting up the symmetry group for a 
 face centered cubic supercell.


 Subroutine GETGRP returns: Found 48 space group operations
 (whereof 24 operations were pure point group operations)
 out of a pool of 48 trial point group operations.


The static configuration has the point symmetry T_d .
 The point group associated with its full space group is O_h .


Analysis of symmetry for dynamics (positions and initial velocities):
=====================================================================
 Subroutine PRICEL returns:
 Original cell was already a primitive cell.
 

 Routine SETGRP: Setting up the symmetry group for a 
 face centered cubic supercell.


 Subroutine GETGRP returns: Found 48 space group operations
 (whereof 24 operations were pure point group operations)
 out of a pool of 48 trial point group operations.


The dynamic configuration has the point symmetry T_d .
 The point group associated with its full space group is O_h .


 Subroutine INISYM returns: Found 48 space group operations
 (whereof 24 operations are pure point group operations),
 and found     1 'primitive' translations


----------------------------------------------------------------------------------------

                                     Primitive cell                                     

  volume of cell :      11.4011

  direct lattice vectors                    reciprocal lattice vectors
     2.526313547  0.000000000  0.000000000     0.395833685 -0.228534684 -0.161598425
     1.263156773  2.187851710  0.000000000     0.000000000  0.457069369 -0.161598425
     1.263156773  0.729283903  2.062726373     0.000000000  0.000000000  0.484795275

  length of vectors
     2.526313547  2.526313547  2.526313547     0.484795275  0.484795275  0.484795275

  position of ions in fractional coordinates (direct lattice)
     0.000000000  0.000000000  0.000000000
     0.250000000  0.250000000  0.250000000

  ion indices of the primitive-cell ions
   primitive index   ion index
                 1           1
                 2           2

----------------------------------------------------------------------------------------



 KPOINTS: C fcc         # System label            

Automatic generation of k-mesh.
 Grid dimensions read from file:
 generate k-points for:    8    8    8

 Generating k-lattice:

  Cartesian coordinates                     Fractional coordinates (reciprocal lattice)
     0.049479211 -0.028566836 -0.020199803     0.125000000  0.000000000  0.000000000
     0.000000000  0.057133671 -0.020199803     0.000000000  0.125000000  0.000000000
     0.000000000  0.000000000  0.060599409     0.000000000  0.000000000  0.125000000

  Length of vectors
     0.060599409  0.060599409  0.060599409

  Shift w.r.t. Gamma in fractional coordinates (k-lattice)
     0.000000000  0.000000000  0.000000000

 TETIRR: Found     76 inequivalent tetrahedra from     3072
 
 Subroutine IBZKPT returns following result:
 ===========================================
 
 Found     29 irreducible k-points:
 
 Following reciprocal coordinates:
            Coordinates               Weight
  0.000000  0.000000  0.000000      1.000000
  0.125000  0.000000  0.000000      8.000000
  0.250000  0.000000  0.000000      8.000000
  0.375000  0.000000  0.000000      8.000000
  0.500000  0.000000  0.000000      4.000000
  0.125000  0.125000  0.000000      6.000000
  0.250000  0.125000  0.000000     24.000000
  0.375000  0.125000  0.000000     24.000000
  0.500000  0.125000  0.000000     24.000000
 -0.375000  0.125000  0.000000     24.000000
 -0.250000  0.125000  0.000000     24.000000
 -0.125000  0.125000  0.000000     12.000000
  0.250000  0.250000  0.000000      6.000000
  0.375000  0.250000  0.000000     24.000000
  0.500000  0.250000  0.000000     24.000000
 -0.375000  0.250000  0.000000     24.000000
 -0.250000  0.250000  0.000000     12.000000
  0.375000  0.375000  0.000000      6.000000
  0.500000  0.375000  0.000000     24.000000
 -0.375000  0.375000  0.000000     12.000000
  0.500000  0.500000  0.000000      3.000000
  0.375000  0.250000  0.125000     24.000000
  0.500000  0.250000  0.125000     48.000000
 -0.375000  0.250000  0.125000     24.000000
  0.500000  0.375000  0.125000     24.000000
 -0.375000  0.375000  0.125000     48.000000
 -0.250000  0.375000  0.125000     24.000000
 -0.375000  0.500000  0.125000     12.000000
 -0.250000  0.500000  0.250000      6.000000
 
 Following cartesian coordinates:
            Coordinates               Weight
  0.000000  0.000000  0.000000      1.000000
  0.049712 -0.028701 -0.020295      8.000000
  0.099423 -0.057402 -0.040589      8.000000
  0.149135 -0.086103 -0.060884      8.000000
  0.198847 -0.114804 -0.081179      4.000000
  0.049712  0.028701 -0.040589      6.000000
  0.099423  0.000000 -0.060884     24.000000
  0.149135 -0.028701 -0.081179     24.000000
  0.198847 -0.057402 -0.101474     24.000000
 -0.149135  0.143505  0.040589     24.000000
 -0.099423  0.114804  0.020295     24.000000
 -0.049712  0.086103  0.000000     12.000000
  0.099423  0.057402 -0.081179      6.000000
  0.149135  0.028701 -0.101474     24.000000
  0.198847  0.000000 -0.121768     24.000000
 -0.149135  0.200907  0.020295     24.000000
 -0.099423  0.172206  0.000000     12.000000
  0.149135  0.086103 -0.121768      6.000000
  0.198847  0.057402 -0.142063     24.000000
 -0.149135  0.258309  0.000000     12.000000
  0.198847  0.114804 -0.162358      3.000000
  0.149135  0.028701 -0.040589     24.000000
  0.198847  0.000000 -0.060884     48.000000
 -0.149135  0.200907  0.081179     24.000000
  0.198847  0.057402 -0.081179     24.000000
 -0.149135  0.258309  0.060884     48.000000
 -0.099423  0.229608  0.040589     24.000000
 -0.149135  0.315712  0.040589     12.000000
 -0.099423  0.287010  0.081179      6.000000
 


--------------------------------------------------------------------------------------------------------




 Dimension of arrays:
   k-points           NKPTS =     29   k-points in BZ     NKDIM =     29   number of bands    NBANDS=      8
   number of dos      NEDOS =    301   number of ions     NIONS =      2
   non local maximal  LDIM  =      4   non local SUM 2l+1 LMDIM =      8
   total plane-waves  NPLWV =   8000
   max r-space proj   IRMAX =      1   max aug-charges    IRDMAX=   8479
   dimension x,y,z NGX =    20 NGY =   20 NGZ =   20
   dimension x,y,z NGXF=    40 NGYF=   40 NGZF=   40
   support grid    NGXF=    40 NGYF=   40 NGZF=   40
   ions per type =               2
   NGX,Y,Z   is equivalent  to a cutoff of  13.16, 13.16, 13.16 a.u.
   NGXF,Y,Z  is equivalent  to a cutoff of  26.32, 26.32, 26.32 a.u.

 SYSTEM =  fcc C                                   
 POSCAR =  C                                       

 Startparameter for this run:
   NWRITE =      2    write-flag & timer
   PREC   = normal    normal or accurate (medium, high low for compatibility)
   ISTART =      1    job   : 0-new  1-cont  2-samecut
   ICHARG =      0    charge: 1-file 2-atom 10-const
   ISPIN  =      1    spin polarized calculation?
   LNONCOLLINEAR =      F non collinear calculations
   LSORBIT =      F    spin-orbit coupling
   INIWAV =      1    electr: 0-lowe 1-rand  2-diag
   LASPH  =      F    aspherical Exc in radial PAW
 Electronic Relaxation 1
   ENCUT  =  900.0 eV  66.15 Ry    8.13 a.u.   6.18  6.18  6.18*2*pi/ulx,y,z
   ENINI  =  900.0     initial cutoff
   ENAUG  =  644.9 eV  augmentation charge cutoff
   NELM   =     60;   NELMIN=  2; NELMDL=  0     # of ELM steps 
   EDIFF  = 0.1E-03   stopping-criterion for ELM
   LREAL  =      F    real-space projection
   NLSPLINE    = F    spline interpolate recip. space projectors
   LCOMPAT=      F    compatible to vasp.4.4
   GGA_COMPAT  = T    GGA compatible to vasp.4.4-vasp.4.6
   LMAXPAW     = -100 max onsite density
   LMAXMIX     =    2 max onsite mixed and CHGCAR
   VOSKOWN=      0    Vosko Wilk Nusair interpolation
   ROPT   =    0.00000
 Ionic relaxation
   EDIFFG = 0.1E-02   stopping-criterion for IOM
   NSW    =      0    number of steps for IOM
   NBLOCK =      1;   KBLOCK =      1    inner block; outer block 
   IBRION =     -1    ionic relax: 0-MD 1-quasi-New 2-CG
   NFREE  =      0    steps in history (QN), initial steepest desc. (CG)
   ISIF   =      2    stress and relaxation
   IWAVPR =     10    prediction:  0-non 1-charg 2-wave 3-comb
   ISYM   =      2    0-nonsym 1-usesym 2-fastsym
   LCORR  =      T    Harris-Foulkes like correction to forces

   POTIM  = 0.5000    time-step for ionic-motion
   TEIN   =    0.0    initial temperature
   TEBEG  =    0.0;   TEEND  =   0.0 temperature during run
   SMASS  =  -3.00    Nose mass-parameter (am)
   estimated Nose-frequenzy (Omega)   =  0.10E-29 period in steps = 0.13E+47 mass=  -0.146E-27a.u.
   SCALEE = 1.0000    scale energy and forces
   NPACO  =    256;   APACO  = 10.0  distance and # of slots for P.C.
   PSTRESS=    0.0 pullay stress

  Mass of Ions in am
   POMASS =  12.01
  Ionic Valenz
   ZVAL   =   4.00
  Atomic Wigner-Seitz radii
   RWIGS  =  -1.00
  virtual crystal weights 
   VCA    =   1.00
   NELECT =       8.0000    total number of electrons
   NUPDOWN=      -1.0000    fix difference up-down

 DOS related values:
   EMIN   =  10.00;   EMAX   =-10.00  energy-range for DOS
   EFERMI =   0.00;   METHOD = LEGACY      
   ISMEAR =    -5;   SIGMA  =   0.20  broadening in eV -4-tet -1-fermi 0-gaus

 Electronic relaxation 2 (details)
   IALGO  =     38    algorithm
   LDIAG  =      T    sub-space diagonalisation (order eigenvalues)
   LSUBROT=      F    optimize rotation matrix (better conditioning)
   TURBO    =      0    0=normal 1=particle mesh
   IRESTART =      0    0=no restart 2=restart with 2 vectors
   NREBOOT  =      0    no. of reboots
   NMIN     =      0    reboot dimension
   EREF     =   0.00    reference energy to select bands
   IMIX   =      4    mixing-type and parameters
     AMIX     =   0.40;   BMIX     =  1.00
     AMIX_MAG =   1.60;   BMIX_MAG =  1.00
     AMIN     =   0.10
     WC   =   100.;   INIMIX=   1;  MIXPRE=   1;  MAXMIX= -45

 Intra band minimization:
   WEIMIN = 0.0000     energy-eigenvalue tresh-hold
   EBREAK =  0.31E-05  absolut break condition
   DEPER  =   0.30     relativ break condition  

   TIME   =   0.40     timestep for ELM

  volume/ion in A,a.u.               =       5.70        38.47
  Fermi-wavevector in a.u.,A,eV,Ry     =   1.454753  2.749084 28.794093  2.116306
  Thomas-Fermi vector in A             =   2.571867

 Write flags
   LWAVE        =      T    write WAVECAR
   LDOWNSAMPLE  =      F    k-point downsampling of WAVECAR
   LCHARG       =      T    write CHGCAR
   LVTOT        =      F    write LOCPOT, total local potential
   LVHAR        =      F    write LOCPOT, Hartree potential only
   LELF         =      F    write electronic localiz. function (ELF)
   LORBIT       =     11    0 simple, 1 ext, 2 COOP (PROOUT), +10 PAW based schemes


 Dipole corrections
   LMONO  =      F    monopole corrections only (constant potential shift)
   LDIPOL =      F    correct potential (dipole corrections)
   IDIPOL =      0    1-x, 2-y, 3-z, 4-all directions 
   EPSILON=  1.0000000 bulk dielectric constant

 Exchange correlation treatment:
   GGA     =    --    GGA type
   LEXCH   =     8    internal setting for exchange type
   LIBXC   =     F    Libxc                    
   VOSKOWN =     0    Vosko Wilk Nusair interpolation
   LHFCALC =     F    Hartree Fock is set to
   LHFONE  =     F    Hartree Fock one center treatment
   AEXX    =    0.0000 exact exchange contribution

 Linear response parameters
   LEPSILON=     F    determine dielectric tensor
   LRPA    =     F    only Hartree local field effects (RPA)
   LNABLA  =     F    use nabla operator in PAW spheres
   LVEL    =     F    velocity operator in full k-point grid
   CSHIFT  =0.1000    complex shift for real part using Kramers Kronig
   OMEGAMAX=  -1.0    maximum frequency
   DEG_THRESHOLD= 0.2000000E-02 threshold for treating states as degnerate
   RTIME   =   -0.100 relaxation time in fs
  (WPLASMAI=    0.000 imaginary part of plasma frequency in eV, 0.658/RTIME)
   DFIELD  = 0.0000000 0.0000000 0.0000000 field for delta impulse in time

  Optional k-point grid parameters
   LKPOINTS_OPT  =     F    use optional k-point grid
   KPOINTS_OPT_MODE=     1    mode for optional k-point grid

 Orbital magnetization related:
   ORBITALMAG=     F  switch on orbital magnetization
   LCHIMAG   =     F  perturbation theory with respect to B field
   DQ        =  0.001000  dq finite difference perturbation B field
   LLRAUG    =     F  two centre corrections for induced B field
   LBONE     =     F  B-component reconstruction in AE one-centre
   LVGVCALC  =     T  calculate vGv susceptibility
   LVGVAPPL  =     F  apply vGv susceptibility instead of pGv for G=0

 Random number generation:
   RANDOM_GENERATOR = DEFAULT
   PCG_SEED         = not used


--------------------------------------------------------------------------------------------------------


 Static calculation
 charge density and potential will be updated during run
 non-spin polarized calculation
 Variant of blocked Davidson
 Davidson routine will perform the subspace rotation
 perform sub-space diagonalisation
    after iterative eigenvector-optimisation
 modified Broyden-mixing scheme, WC =      100.0
 initial mixing is a Kerker type mixing with AMIX =  0.4000 and BMIX =      1.0000
 Hartree-type preconditioning will be used
 using additional bands            4
 reciprocal scheme for non local part
 use partial core corrections
 calculate Harris-corrections to forces   (improved forces if not selfconsistent)
 use gradient corrections 
 use of overlap-Matrix (Vanderbilt PP)
 Fermi weights with tetrahedron method with Bloechl corrections


--------------------------------------------------------------------------------------------------------


  energy-cutoff  :      900.00
  volume of cell :       11.40
      direct lattice vectors                 reciprocal lattice vectors
     2.526313547  0.000000000  0.000000000     0.395833685 -0.228534684 -0.161598425
     1.263156773  2.187851710  0.000000000     0.000000000  0.457069369 -0.161598425
     1.263156773  0.729283903  2.062726373     0.000000000  0.000000000  0.484795275

  length of vectors
     2.526313547  2.526313547  2.526313547     0.484795275  0.484795275  0.484795275



 old parameters found on file WAVECAR:
  energy-cutoff  :      900.00
  volume of cell :       14.40
      direct lattice vectors                 reciprocal lattice vectors
     2.730816364  0.000000000  0.000000000     0.366190863 -0.211420393 -0.149496794
     1.365408182  2.364956344  0.000000000     0.000000000  0.422840786 -0.149496794
     1.365408182  0.788318781  2.229702224     0.000000000  0.000000000  0.448490381

  length of vectors


 k-points in units of 2pi/SCALE and weight: C fcc         # System label            
   0.00000000  0.00000000  0.00000000       0.002
   0.04971167 -0.02870105 -0.02029471       0.016
   0.09942334 -0.05740209 -0.04058941       0.016
   0.14913502 -0.08610314 -0.06088412       0.016
   0.19884669 -0.11480419 -0.08117882       0.008
   0.04971167  0.02870105 -0.04058941       0.012
   0.09942334  0.00000000 -0.06088412       0.047
   0.14913502 -0.02870105 -0.08117882       0.047
   0.19884669 -0.05740209 -0.10147353       0.047
  -0.14913502  0.14350524  0.04058941       0.047
  -0.09942334  0.11480419  0.02029471       0.047
  -0.04971167  0.08610314  0.00000000       0.023
   0.09942334  0.05740209 -0.08117882       0.012
   0.14913502  0.02870105 -0.10147353       0.047
   0.19884669  0.00000000 -0.12176823       0.047
  -0.14913502  0.20090733  0.02029471       0.047
  -0.09942334  0.17220628  0.00000000       0.023
   0.14913502  0.08610314 -0.12176823       0.012
   0.19884669  0.05740209 -0.14206294       0.047
  -0.14913502  0.25830943  0.00000000       0.023
   0.19884669  0.11480419 -0.16235764       0.006
   0.14913502  0.02870105 -0.04058941       0.047
   0.19884669  0.00000000 -0.06088412       0.094
  -0.14913502  0.20090733  0.08117882       0.047
   0.19884669  0.05740209 -0.08117882       0.047
  -0.14913502  0.25830943  0.06088412       0.094
  -0.09942334  0.22960838  0.04058941       0.047
  -0.14913502  0.31571152  0.04058941       0.023
  -0.09942334  0.28701047  0.08117882       0.012

 k-points in reciprocal lattice and weights: C fcc         # System label            
   0.00000000  0.00000000  0.00000000       0.002
   0.12500000  0.00000000  0.00000000       0.016
   0.25000000  0.00000000  0.00000000       0.016
   0.37500000  0.00000000  0.00000000       0.016
   0.50000000  0.00000000  0.00000000       0.008
   0.12500000  0.12500000  0.00000000       0.012
   0.25000000  0.12500000  0.00000000       0.047
   0.37500000  0.12500000  0.00000000       0.047
   0.50000000  0.12500000  0.00000000       0.047
  -0.37500000  0.12500000  0.00000000       0.047
  -0.25000000  0.12500000  0.00000000       0.047
  -0.12500000  0.12500000  0.00000000       0.023
   0.25000000  0.25000000  0.00000000       0.012
   0.37500000  0.25000000  0.00000000       0.047
   0.50000000  0.25000000  0.00000000       0.047
  -0.37500000  0.25000000  0.00000000       0.047
  -0.25000000  0.25000000  0.00000000       0.023
   0.37500000  0.37500000  0.00000000       0.012
   0.50000000  0.37500000  0.00000000       0.047
  -0.37500000  0.37500000  0.00000000       0.023
   0.50000000  0.50000000  0.00000000       0.006
   0.37500000  0.25000000  0.12500000       0.047
   0.50000000  0.25000000  0.12500000       0.094
  -0.37500000  0.25000000  0.12500000       0.047
   0.50000000  0.37500000  0.12500000       0.047
  -0.37500000  0.37500000  0.12500000       0.094
  -0.25000000  0.37500000  0.12500000       0.047
  -0.37500000  0.50000000  0.12500000       0.023
  -0.25000000  0.50000000  0.25000000       0.012

 position of ions in fractional coordinates (direct lattice) 
   0.00000000  0.00000000  0.00000000
   0.25000000  0.25000000  0.25000000

 position of ions in cartesian coordinates  (Angst):
   0.00000000  0.00000000  0.00000000
   1.26315677  0.72928390  0.51568159



--------------------------------------------------------------------------------------------------------


 k-point   1 :   0.0000 0.0000 0.0000  plane waves:     725
 k-point   2 :   0.1250 0.0000 0.0000  plane waves:     700
 k-point   3 :   0.2500 0.0000 0.0000  plane waves:     697
 k-point   4 :   0.3750 0.0000 0.0000  plane waves:     694
 k-point   5 :   0.5000 0.0000 0.0000  plane waves:     700
 k-point   6 :   0.1250 0.1250 0.0000  plane waves:     697
 k-point   7 :   0.2500 0.1250 0.0000  plane waves:     690
 k-point   8 :   0.3750 0.1250 0.0000  plane waves:     703
 k-point   9 :   0.5000 0.1250 0.0000  plane waves:     701
 k-point  10 :  -0.3750 0.1250 0.0000  plane waves:     698
 k-point  11 :  -0.2500 0.1250 0.0000  plane waves:     699
 k-point  12 :  -0.1250 0.1250 0.0000  plane waves:     694
 k-point  13 :   0.2500 0.2500 0.0000  plane waves:     713
 k-point  14 :   0.3750 0.2500 0.0000  plane waves:     697
 k-point  15 :   0.5000 0.2500 0.0000  plane waves:     701
 k-point  16 :  -0.3750 0.2500 0.0000  plane waves:     700
 k-point  17 :  -0.2500 0.2500 0.0000  plane waves:     688
 k-point  18 :   0.3750 0.3750 0.0000  plane waves:     700
 k-point  19 :   0.5000 0.3750 0.0000  plane waves:     704
 k-point  20 :  -0.3750 0.3750 0.0000  plane waves:     706
 k-point  21 :   0.5000 0.5000 0.0000  plane waves:     692
 k-point  22 :   0.3750 0.2500 0.1250  plane waves:     700
 k-point  23 :   0.5000 0.2500 0.1250  plane waves:     698
 k-point  24 :  -0.3750 0.2500 0.1250  plane waves:     702
 k-point  25 :   0.5000 0.3750 0.1250  plane waves:     691
 k-point  26 :  -0.3750 0.3750 0.1250  plane waves:     705
 k-point  27 :  -0.2500 0.3750 0.1250  plane waves:     701
 k-point  28 :  -0.3750 0.5000 0.1250  plane waves:     706
 k-point  29 :  -0.2500 0.5000 0.2500  plane waves:     700

 maximum and minimum number of plane-waves per node :       725      688

 maximum number of plane-waves:       725
 maximum index in each direction: 
   IXMAX=    6   IYMAX=    6   IZMAX=    6
   IXMIN=   -6   IYMIN=   -6   IZMIN=   -6


 serial   3D FFT for wavefunctions
 parallel 3D FFT for charge:
    minimum data exchange during FFTs selected (reduces bandwidth)


 total amount of memory used by VASP MPI-rank0    33785. kBytes
=======================================================================

   base      :      30000. kBytes
   nonl-proj :       1374. kBytes
   fftplans  :        595. kBytes
   grid      :       1120. kBytes
   one-center:          6. kBytes
   wavefun   :        690. kBytes

     INWAV:  cpu time      0.0031: real time      0.0031
 Broyden mixing: mesh for mixing (old mesh)
   NGX = 13   NGY = 13   NGZ = 13
  (NGX  = 40   NGY  = 40   NGZ  = 40)
  gives a total of   2197 points

 charge density for first step will be calculated from the start-wavefunctions


--------------------------------------------------------------------------------------------------------


 Maximum index for augmentation-charges         1989 (set IRDMAX)


--------------------------------------------------------------------------------------------------------


 initial charge from wavefunction
 First call to EWALD:  gamma=   0.788
 Maximum number of real-space cells 3x 3x 3
 Maximum number of reciprocal cells 3x 3x 3

    FEWALD:  cpu time      0.0005: real time      0.0005


--------------------------------------- Ionic step        1  -------------------------------------------




--------------------------------------- Iteration      1(   1)  ---------------------------------------


    POTLOK:  cpu time      0.0048: real time      0.0048
    SETDIJ:  cpu time      0.0008: real time      0.0008
     EDDAV:  cpu time      0.0396: real time      0.0396
 BZINTS: Fermi energy:   10.763285;    8.000000 electrons
         Band energy: 0.115702E+02;  BLOECHL correction:    0.000000
       DOS:  cpu time      0.0007: real time      0.0007
    CHARGE:  cpu time      0.0027: real time      0.0027
    MIXING:  cpu time      0.0001: real time      0.0001
    --------------------------------------------
      LOOP:  cpu time      0.0487: real time      0.0487

 eigenvalue-minimisations  :   584
 total energy-change (2. order) :-0.1858392E+02  (-0.2085538E+01)
 number of electron       7.9999999 magnetization 
 augmentation part        0.1804892 magnetization 

 Broyden mixing:
  rms(total) = 0.52768E+00    rms(broyden)= 0.52768E+00
  rms(prec ) = 0.13499E+01
  weight for this iteration     100.00

 Free energy of the ion-electron system (eV)
  ---------------------------------------------------
  alpha Z        PSCENC =        28.82062818
  Ewald energy   TEWEN  =      -347.37975617
  -Hartree energ DENC   =       -32.89431596
  -exchange      EXHF   =         0.00000000
  -V(xc)+E(xc)   XCENC  =        28.71208990
  PAW double counting   =       460.13477678     -461.85749412
  entropy T*S    EENTRO =         0.00000000
  eigenvalues    EBANDS =        11.57022656
  atomic energy  EATOM  =       294.30992362
  Solvation  Ediel_sol  =         0.00000000
  ---------------------------------------------------
  free energy    TOTEN  =       -18.58392122 eV

  energy without entropy =      -18.58392122  energy(sigma->0) =      -18.58392122


--------------------------------------------------------------------------------------------------------




--------------------------------------- Iteration      1(   2)  ---------------------------------------


    POTLOK:  cpu time      0.0048: real time      0.0048
    SETDIJ:  cpu time      0.0008: real time      0.0008
     EDDAV:  cpu time      0.0354: real time      0.0354
 BZINTS: Fermi energy:   10.172473;    8.000000 electrons
         Band energy: 0.867883E+01;  BLOECHL correction:    0.000000
       DOS:  cpu time      0.0007: real time      0.0007
    CHARGE:  cpu time      0.0026: real time      0.0026
    MIXING:  cpu time      0.0002: real time      0.0002
    --------------------------------------------
      LOOP:  cpu time      0.0444: real time      0.0444

 eigenvalue-minimisations  :   512
 total energy-change (2. order) : 0.2796988E+00  (-0.2367386E-01)
 number of electron       7.9999999 magnetization 
 augmentation part        0.1842503 magnetization 

 Broyden mixing:
  rms(total) = 0.26806E+00    rms(broyden)= 0.26806E+00
  rms(prec ) = 0.69764E+00
  weight for this iteration     100.00

 eigenvalues of (default mixing * dielectric matrix)
  average eigenvalue GAMMA=   2.0229
  2.0229

 Free energy of the ion-electron system (eV)
  ---------------------------------------------------
  alpha Z        PSCENC =        28.82062818
  Ewald energy   TEWEN  =      -347.37975617
  -Hartree energ DENC   =       -29.63754122
  -exchange      EXHF   =         0.00000000
  -V(xc)+E(xc)   XCENC  =        28.43444674
  PAW double counting   =       597.78247634     -599.31322584
  entropy T*S    EENTRO =         0.00000000
  eigenvalues    EBANDS =         8.67882593
  atomic energy  EATOM  =       294.30992362
  Solvation  Ediel_sol  =         0.00000000
  ---------------------------------------------------
  free energy    TOTEN  =       -18.30422242 eV

  energy without entropy =      -18.30422242  energy(sigma->0) =      -18.30422242


--------------------------------------------------------------------------------------------------------




--------------------------------------- Iteration      1(   3)  ---------------------------------------


    POTLOK:  cpu time      0.0046: real time      0.0046
    SETDIJ:  cpu time      0.0008: real time      0.0008
     EDDAV:  cpu time      0.0343: real time      0.0343
 BZINTS: Fermi energy:    9.697743;    8.000000 electrons
         Band energy: 0.563821E+01;  BLOECHL correction:    0.000000
       DOS:  cpu time      0.0007: real time      0.0007
    CHARGE:  cpu time      0.0025: real time      0.0025
    MIXING:  cpu time      0.0002: real time      0.0002
    --------------------------------------------
      LOOP:  cpu time      0.0430: real time      0.0430

 eigenvalue-minimisations  :   504
 total energy-change (2. order) : 0.1040619E+00  (-0.2434112E-01)
 number of electron       7.9999999 magnetization 
 augmentation part        0.1883540 magnetization 

 Broyden mixing:
  rms(total) = 0.22494E-01    rms(broyden)= 0.22494E-01
  rms(prec ) = 0.33092E-01
  weight for this iteration     100.00

 eigenvalues of (default mixing * dielectric matrix)
  average eigenvalue GAMMA=   2.2110
  2.2110  2.2110

 Free energy of the ion-electron system (eV)
  ---------------------------------------------------
  alpha Z        PSCENC =        28.82062818
  Ewald energy   TEWEN  =      -347.37975617
  -Hartree energ DENC   =       -26.43094643
  -exchange      EXHF   =         0.00000000
  -V(xc)+E(xc)   XCENC  =        28.16767848
  PAW double counting   =       769.88269305     -771.20859092
  entropy T*S    EENTRO =         0.00000000
  eigenvalues    EBANDS =         5.63820966
  atomic energy  EATOM  =       294.30992362
  Solvation  Ediel_sol  =         0.00000000
  ---------------------------------------------------
  free energy    TOTEN  =       -18.20016051 eV

  energy without entropy =      -18.20016051  energy(sigma->0) =      -18.20016051


--------------------------------------------------------------------------------------------------------




--------------------------------------- Iteration      1(   4)  ---------------------------------------


    POTLOK:  cpu time      0.0046: real time      0.0046
    SETDIJ:  cpu time      0.0008: real time      0.0008
     EDDAV:  cpu time      0.0315: real time      0.0315
 BZINTS: Fermi energy:    9.704607;    8.000000 electrons
         Band energy: 0.569281E+01;  BLOECHL correction:    0.000000
       DOS:  cpu time      0.0006: real time      0.0006
    --------------------------------------------
      LOOP:  cpu time      0.0375: real time      0.0375

 eigenvalue-minimisations  :   456
 total energy-change (2. order) :-0.3480945E-04  (-0.4620983E-04)
 number of electron       7.9999999 magnetization 
 augmentation part        0.1883540 magnetization 

 Free energy of the ion-electron system (eV)
  ---------------------------------------------------
  alpha Z        PSCENC =        28.82062818
  Ewald energy   TEWEN  =      -347.37975617
  -Hartree energ DENC   =       -26.48994713
  -exchange      EXHF   =         0.00000000
  -V(xc)+E(xc)   XCENC  =        28.17476212
  PAW double counting   =       761.77792010     -763.10653313
  entropy T*S    EENTRO =         0.00000000
  eigenvalues    EBANDS =         5.69280708
  atomic energy  EATOM  =       294.30992362
  Solvation  Ediel_sol  =         0.00000000
  ---------------------------------------------------
  free energy    TOTEN  =       -18.20019532 eV

  energy without entropy =      -18.20019532  energy(sigma->0) =      -18.20019532


--------------------------------------------------------------------------------------------------------




 average (electrostatic) potential at core
  the test charge radii are     0.6991
  (the norm of the test charge is              1.0000)
       1 -45.4570       2 -45.4570



 E-fermi :   9.7046     XC(G=0): -13.2244     alpha+bet :-17.5813

 Fermi energy:         9.7046071170

 k-point     1 :       0.0000    0.0000    0.0000
  band No.  band energies     occupation 
      1     -11.7530      2.00000
      2       9.6540      2.00000
      3       9.6540      2.00000
      4       9.6540      2.00000
      5      15.2306      0.00000
      6      15.2306      0.00000
      7      15.2306      0.00000
      8      22.8714      0.00000

 k-point     2 :       0.1250    0.0000    0.0000
  band No.  band energies     occupation 
      1     -11.3225      2.00000
      2       7.2486      2.00000
      3       9.0053      2.00000
      4       9.0053      2.00000
      5      16.0843      0.00000
      6      16.0843      0.00000
      7      16.5044      0.00000
      8      23.2472      0.00000

 k-point     3 :       0.2500    0.0000    0.0000
  band No.  band energies     occupation 
      1     -10.0444      2.00000
      2       3.0868      2.00000
      3       7.9171      2.00000
      4       7.9171      2.00000
      5      17.4197      0.00000
      6      17.4197      0.00000
      7      17.7529      0.00000
      8      24.2080      0.00000

 k-point     4 :       0.3750    0.0000    0.0000
  band No.  band energies     occupation 
      1      -7.9874      2.00000
      2      -0.9796      2.00000
      3       7.1384      2.00000
      4       7.1384      2.00000
      5      18.0167      0.00000
      6      18.0167      0.00000
      7      18.2891      0.00000
      8      25.0618      0.00000

 k-point     5 :       0.5000    0.0000    0.0000
  band No.  band energies     occupation 
      1      -6.0075      2.00000
      2      -3.6628      2.00000
      3       6.8671      2.00000
      4       6.8671      2.00000
      5      18.0920      0.00000
      6      18.0920      0.00000
      7      18.4343      0.00000
      8      25.3053      0.00000

 k-point     6 :       0.1250    0.1250    0.0000
  band No.  band energies     occupation 
      1     -11.1792      2.00000
      2       7.9383      2.00000
      3       7.9383      2.00000
      4       8.3293      2.00000
      5      14.8212      0.00000
      6      17.4344      0.00000
      7      17.4344      0.00000
      8      22.8778      0.00000

 k-point     7 :       0.2500    0.1250    0.0000
  band No.  band energies     occupation 
      1     -10.1838      2.00000
      2       4.5845      2.00000
      3       6.7938      2.00000
      4       7.6294      2.00000
      5      15.4752      0.00000
      6      18.9530      0.00000
      7      19.0441      0.00000
      8      22.4561      0.00000

 k-point     8 :       0.3750    0.1250    0.0000
  band No.  band energies     occupation 
      1      -8.3794      2.00000
      2       0.5724      2.00000
      3       6.1488      2.00000
      4       6.4684      2.00000
      5      16.6393      0.00000
      6      19.6717      0.00000
      7      19.7111      0.00000
      8      23.0866      0.00000

 k-point     9 :       0.5000    0.1250    0.0000
  band No.  band energies     occupation 
      1      -6.0603      2.00000
      2      -2.8499      2.00000
      3       5.5205      2.00000
      4       6.1472      2.00000
      5      17.2487      0.00000
      6      19.4399      0.00000
      7      19.8725      0.00000
      8      24.7817      0.00000

 k-point    10 :      -0.3750    0.1250    0.0000
  band No.  band energies     occupation 
      1      -6.8248      2.00000
      2      -1.8520      2.00000
      3       5.0918      2.00000
      4       6.7596      2.00000
      5      17.8318      0.00000
      6      18.7934      0.00000
      7      19.7795      0.00000
      8      24.9818      0.00000

 k-point    11 :      -0.2500    0.1250    0.0000
  band No.  band energies     occupation 
      1      -9.0663      2.00000
      2       1.9176      2.00000
      3       5.3079      2.00000
      4       7.8239      2.00000
      5      17.7510      0.00000
      6      18.2624      0.00000
      7      19.2203      0.00000
      8      23.7431      0.00000

 k-point    12 :      -0.1250    0.1250    0.0000
  band No.  band energies     occupation 
      1     -10.6094      2.00000
      2       5.6826      2.00000
      3       6.4190      2.00000
      4       8.9005      2.00000
      5      16.3836      0.00000
      6      17.6850      0.00000
      7      17.7937      0.00000
      8      23.3581      0.00000

 k-point    13 :       0.2500    0.2500    0.0000
  band No.  band energies     occupation 
      1      -9.4771      2.00000
      2       5.1450      2.00000
      3       5.5531      2.00000
      4       5.5531      2.00000
      5      14.0854      0.00000
      6      19.8688      0.00000
      7      21.1953      0.00000
      8      21.1953      0.00000

 k-point    14 :       0.3750    0.2500    0.0000
  band No.  band energies     occupation 
      1      -7.9530      2.00000
      2       2.1592      2.00000
      3       4.4533      2.00000
      4       4.8263      2.00000
      5      14.8131      0.00000
      6      18.9664      0.00000
      7      22.4890      0.00000
      8      22.5099      0.00000

 k-point    15 :       0.5000    0.2500    0.0000
  band No.  band energies     occupation 
      1      -5.7560      2.00000
      2      -1.0950      2.00000
      3       2.9407      2.00000
      4       4.8014      2.00000
      5      15.7179      0.00000
      6      21.0489      0.00000
      7      22.4138      0.00000
      8      22.9132      0.00000

 k-point    16 :      -0.3750    0.2500    0.0000
  band No.  band energies     occupation 
      1      -5.0635      2.00000
      2      -1.8904      2.00000
      3       1.9425      2.00000
      4       5.4716      2.00000
      5      16.4843      0.00000
      6      21.3834      0.00000
      7      22.8466      0.00000
      8      24.3859      0.00000

 k-point    17 :      -0.2500    0.2500    0.0000
  band No.  band energies     occupation 
      1      -7.3031      2.00000
      2       0.9797      2.00000
      3       2.0815      2.00000
      4       6.6571      2.00000
      5      17.5587      0.00000
      6      19.6258      0.00000
      7      21.9561      0.00000
      8      23.4943      0.00000

 k-point    18 :       0.3750    0.3750    0.0000
  band No.  band energies     occupation 
      1      -6.7181      2.00000
      2       1.0902      2.00000
      3       3.9429      2.00000
      4       3.9429      2.00000
      5      13.7766      0.00000
      6      16.3696      0.00000
      7      24.7090      0.00000
      8      24.7090      0.00000

 k-point    19 :       0.5000    0.3750    0.0000
  band No.  band energies     occupation 
      1      -4.7642      2.00000
      2      -0.9889      2.00000
      3       2.3477      2.00000
      4       3.7612      2.00000
      5      14.6171      0.00000
      6      16.6425      0.00000
      7      25.2363      0.00000
      8      25.4938      0.00000

 k-point    20 :      -0.3750    0.3750    0.0000
  band No.  band energies     occupation 
      1      -3.2918      2.00000
      2      -2.0446      2.00000
      3       0.3860      2.00000
      4       4.3165      2.00000
      5      15.3185      0.00000
      6      20.3619      0.00000
      7      23.9587      0.00000
      8      25.2032      0.00000

 k-point    21 :       0.5000    0.5000    0.0000
  band No.  band energies     occupation 
      1      -3.0736      2.00000
      2      -3.0736      2.00000
      3       3.3862      2.00000
      4       3.3862      2.00000
      5      14.4033      0.00000
      6      14.4033      0.00000
      7      26.3825      0.00000
      8      26.3825      0.00000

 k-point    22 :       0.3750    0.2500    0.1250
  band No.  band energies     occupation 
      1      -8.9232      2.00000
      2       3.1634      2.00000
      3       4.1789      2.00000
      4       6.7793      2.00000
      5      16.2068      0.00000
      6      19.6585      0.00000
      7      21.1829      0.00000
      8      21.3577      0.00000

 k-point    23 :       0.5000    0.2500    0.1250
  band No.  band energies     occupation 
      1      -6.9064      2.00000
      2      -0.1577      2.00000
      3       3.4007      2.00000
      4       5.5924      2.00000
      5      17.5987      0.00000
      6      19.2567      0.00000
      7      21.9854      0.00000
      8      22.9487      0.00000

 k-point    24 :      -0.3750    0.2500    0.1250
  band No.  band energies     occupation 
      1      -4.9994      2.00000
      2      -2.6595      2.00000
      3       3.3643      2.00000
      4       4.9900      2.00000
      5      17.9378      0.00000
      6      19.0595      0.00000
      7      22.6385      0.00000
      8      24.4584      0.00000

 k-point    25 :       0.5000    0.3750    0.1250
  band No.  band energies     occupation 
      1      -6.2116      2.00000
      2       0.6642      2.00000
      3       2.6942      2.00000
      4       3.7436      2.00000
      5      15.9587      0.00000
      6      18.2315      0.00000
      7      22.5899      0.00000
      8      24.7073      0.00000

 k-point    26 :      -0.3750    0.3750    0.1250
  band No.  band energies     occupation 
      1      -4.0304      2.00000
      2      -1.4803      2.00000
      3       1.2807      2.00000
      4       3.3378      2.00000
      5      17.1649      0.00000
      6      20.5246      0.00000
      7      22.1261      0.00000
      8      24.5130      0.00000

 k-point    27 :      -0.2500    0.3750    0.1250
  band No.  band energies     occupation 
      1      -4.8177      2.00000
      2      -0.7231      2.00000
      3       0.8287      2.00000
      4       4.2073      2.00000
      5      18.0027      0.00000
      6      20.3852      0.00000
      7      22.6578      0.00000
      8      24.1190      0.00000

 k-point    28 :      -0.3750    0.5000    0.1250
  band No.  band energies     occupation 
      1      -2.7387      2.00000
      2      -2.7387      2.00000
      3       2.3761      2.00000
      4       2.3761      2.00000
      5      16.5085      0.00000
      6      16.5085      0.00000
      7      25.1451      0.00000
      8      25.1451      0.00000

 k-point    29 :      -0.2500    0.5000    0.2500
  band No.  band energies     occupation 
      1      -2.2906      2.00000
      2      -2.2906      2.00000
      3       1.3749      2.00000
      4       1.3749      2.00000
      5      20.2543      0.00000
      6      20.2543      0.00000
      7      21.9063      0.00000
      8      21.9063      0.00000


--------------------------------------------------------------------------------------------------------


 soft charge-density along one line, spin component           1
         0         1         2         3         4         5         6         7         8         9
 total charge-density along one line

 pseudopotential strength for first ion, spin component:           1
  9.436  12.531  -0.000  -0.000  -0.000   0.000   0.000   0.000
 12.531  16.639  -0.000  -0.000  -0.000   0.000   0.000   0.000
 -0.000  -0.000  -3.666   0.000   0.000   7.181  -0.000  -0.000
 -0.000  -0.000   0.000  -3.666   0.000  -0.000   7.181  -0.000
 -0.000  -0.000   0.000   0.000  -3.666  -0.000  -0.000   7.181
  0.000   0.000   7.181  -0.000  -0.000 -16.162   0.000   0.000
  0.000   0.000  -0.000   7.181  -0.000   0.000 -16.162   0.000
  0.000   0.000  -0.000  -0.000   7.181   0.000   0.000 -16.162
 total augmentation occupancy for first ion, spin component:           1
  7.386  -3.256   0.000   0.000   0.000  -0.000  -0.000   0.000
 -3.256   1.520   0.000  -0.000  -0.000   0.000   0.000   0.000
  0.000  -0.000   1.569   0.000   0.000   0.132   0.000   0.000
 -0.000  -0.000   0.000   1.569   0.000   0.000   0.132   0.000
 -0.000  -0.000   0.000   0.000   1.569   0.000   0.000   0.132
 -0.000  -0.000   0.132   0.000   0.000   0.013   0.000   0.000
  0.000  -0.000   0.000   0.132   0.000   0.000   0.013   0.000
  0.000  -0.000   0.000   0.000   0.132   0.000   0.000   0.013


------------------------ aborting loop because EDIFF is reached ----------------------------------------





 total charge

# of ion       s       p       d       tot
------------------------------------------
    1        0.827   1.743   0.000   2.570
    2        0.827   1.743   0.000   2.570
--------------------------------------------------
tot          1.653   3.486   0.000   5.140

    CHARGE:  cpu time      0.0025: real time      0.0025
    FORLOC:  cpu time      0.0002: real time      0.0002
    FORNL :  cpu time      0.0044: real time      0.0044
    STRESS:  cpu time      0.0427: real time      0.0427
    FORCOR:  cpu time      0.0048: real time      0.0048
    FORHAR:  cpu time      0.0011: real time      0.0011
    MIXING:  cpu time      0.0002: real time      0.0002
    OFIELD:  cpu time      0.0000: real time      0.0000

  FORCE on cell =-STRESS in cart. coord.  units (eV):
  Direction    XX          YY          ZZ          XY          YZ          ZX
  --------------------------------------------------------------------------------------
  Alpha Z    28.82063    28.82063    28.82063
  Ewald    -115.79330  -115.79330  -115.79330    -0.00000    -0.00000    -0.00000
  Hartree     8.82326     8.82326     8.82326    -0.00000    -0.00000    -0.00000
  E(xc)     -30.40775   -30.40775   -30.40775     0.00000     0.00000     0.00000
  Local     -11.20977   -11.20977   -11.20977     0.00000     0.00000     0.00000
  n-local    -7.02740    -6.80660    -7.54134    -0.74127    -0.06613     0.23808
  augment    -0.71872    -0.71871    -0.71871    -0.00000    -0.00000    -0.00000
  Kinetic   125.22566   126.88821   130.64419     5.24776     1.66603     0.83409
  Fock        0.00000     0.00000     0.00000     0.00000     0.00000     0.00000
  -------------------------------------------------------------------------------------
  Total      -0.02475    -0.02475    -0.02475    -0.00000    -0.00000    -0.00000
  in kB      -3.47862    -3.47862    -3.47862    -0.00000    -0.00000    -0.00000
  external pressure =       -3.48 kB  Pullay stress =        0.00 kB


 VOLUME and BASIS-vectors are now :
 -----------------------------------------------------------------------------
  energy-cutoff  :      900.00
  volume of cell :       11.40
      direct lattice vectors                 reciprocal lattice vectors
     2.526313547  0.000000000  0.000000000     0.395833685 -0.228534684 -0.161598425
     1.263156773  2.187851710  0.000000000     0.000000000  0.457069369 -0.161598425
     1.263156773  0.729283903  2.062726373     0.000000000  0.000000000  0.484795275

  length of vectors
     2.526313547  2.526313547  2.526313547     0.484795275  0.484795275  0.484795275


 FORCES acting on ions
    electron-ion (+dipol)            ewald-force                    non-local-force                 convergence-correction
 -----------------------------------------------------------------------------------------------
   0.120E-06 0.691E-07 0.347E-08   0.520E-13 0.349E-13 0.187E-13   -.445E-17 0.397E-16 -.136E-17   0.292E-07 0.168E-07 0.119E-07
   -.120E-06 -.691E-07 -.347E-08   -.524E-13 -.343E-13 -.186E-13   0.993E-17 -.365E-17 0.452E-17   -.292E-07 -.168E-07 -.119E-07
 -----------------------------------------------------------------------------------------------
   0.103E-12 0.546E-13 0.687E-13   -.322E-15 0.540E-15 0.851E-16   0.547E-17 0.360E-16 0.316E-17   -.264E-14 0.770E-16 -.119E-13


 POSITION                                       TOTAL-FORCE (eV/Angst)
 -----------------------------------------------------------------------------------
      0.00000      0.00000      0.00000        -0.000000      0.000000     -0.000000
      1.26316      0.72928      0.51568         0.000000     -0.000000      0.000000
 -----------------------------------------------------------------------------------
    total drift:                                0.000000      0.000000      0.000000


--------------------------------------------------------------------------------------------------------



  FREE ENERGIE OF THE ION-ELECTRON SYSTEM (eV)
  ---------------------------------------------------
  free  energy   TOTEN  =       -18.20019532 eV

  energy  without entropy=      -18.20019532  energy(sigma->0) =      -18.20019532



--------------------------------------------------------------------------------------------------------


    POTLOK:  cpu time      0.0057: real time      0.0057


--------------------------------------------------------------------------------------------------------


 writing wavefunctions
     LOOP+:  cpu time      0.2764: real time      0.2773
    4ORBIT:  cpu time      0.0000: real time      0.0000



 total charge

# of ion       s       p       d       tot
------------------------------------------
    1        0.827   1.743   0.000   2.570
    2        0.827   1.743   0.000   2.570
--------------------------------------------------
tot          1.653   3.486   0.000   5.140

 BZINTS: Fermi energy:    9.704607;    8.000000 electrons
         Band energy: 0.569281E+01;  BLOECHL correction:    0.000000

 total amount of memory used by VASP MPI-rank0    33785. kBytes
=======================================================================

   base      :      30000. kBytes
   nonl-proj :       1374. kBytes
   fftplans  :        595. kBytes
   grid      :       1120. kBytes
   one-center:          6. kBytes
   wavefun   :        690. kBytes

  
  
 General timing and accounting informations for this job:
 ========================================================
  
                  Total CPU time used (sec):        1.511
                            User time (sec):        0.881
                          System time (sec):        0.630
                         Elapsed time (sec):        1.707
  
                   Maximum memory used (kb):       48636.
                   Average memory used (kb):          N/A
  
                          Minor page faults:         4998
                          Major page faults:            2
                 Voluntary context switches:         1161
