 running    4 mpi-ranks, with    1 threads/rank, on    1 nodes
 distrk:  each k-point on    4 cores,    1 groups
 distr:  one band on    1 cores,    4 groups
 vasp.6.4.2 20Jul23 (build Oct 18 2023 12:49:41) complex                         
 POSCAR found :  1 types and       2 ions
 Reading from existing POTCAR
 scaLAPACK will be used
 Reading from existing POTCAR
 LDA part: xc-table for Pade appr. of Perdew
 found WAVECAR, reading the header
 WAVECAR: different cutoff or change in lattice found
 POSCAR, INCAR and KPOINTS ok, starting setup
 FFT: planning ... GRIDC
 FFT: planning ... GRID_SOFT
 FFT: planning ... GRID
 reading WAVECAR
 the WAVECAR file was read successfully
 initial charge from wavefunction
 entering main loop
       N       E                     dE             d eps       ncg     rms          rms(c)
DAV:   1    -0.183193194464E+02   -0.18319E+02   -0.72977E+00   256   0.435E+01    0.116E+00
DAV:   2    -0.183182066744E+02    0.11128E-02   -0.36182E-03   288   0.660E-01    0.713E-01
DAV:   3    -0.183176521551E+02    0.55452E-03   -0.49361E-03   312   0.637E-01    0.838E-02
DAV:   4    -0.183176539811E+02   -0.18260E-05   -0.28632E-04   280   0.138E-01
   1 F= -.18317654E+02 E0= -.18317654E+02  d E =0.000000E+00
 writing wavefunctions
