 running    2 mpi-ranks, with    1 threads/rank, on    1 nodes
 distrk:  each k-point on    2 cores,    1 groups
 distr:  one band on    1 cores,    2 groups
 vasp.6.4.2 20Jul23 (build Oct 18 2023 12:49:41) complex                         
 POSCAR found :  1 types and       2 ions
 Reading from existing POTCAR
 scaLAPACK will be used
 Reading from existing POTCAR
 LDA part: xc-table for Pade appr. of Perdew
 found WAVECAR, reading the header
 WAVECAR: different cutoff or change in lattice found
 POSCAR, INCAR and KPOINTS ok, starting setup
 FFT: planning ... GRIDC
 FFT: planning ... GRID_SOFT
 FFT: planning ... GRID
 reading WAVECAR
 the WAVECAR file was read successfully
 initial charge from wavefunction
 entering main loop
       N       E                     dE             d eps       ncg     rms          rms(c)
DAV:   1    -0.182129256706E+02   -0.18213E+02   -0.67684E-01   544   0.883E+00    0.104E+00
DAV:   2    -0.182035979767E+02    0.93277E-02   -0.81547E-03   520   0.927E-01    0.559E-01
DAV:   3    -0.182001838769E+02    0.34141E-02   -0.82762E-03   488   0.784E-01    0.240E-02
DAV:   4    -0.182001857852E+02   -0.19083E-05   -0.16683E-05   376   0.645E-02
   1 F= -.18200186E+02 E0= -.18200186E+02  d E =0.000000E+00
 writing wavefunctions
