 running    4 mpi-ranks, with    1 threads/rank, on    1 nodes
 distrk:  each k-point on    4 cores,    1 groups
 distr:  one band on    1 cores,    4 groups
 vasp.6.4.2 20Jul23 (build Oct 18 2023 12:49:41) complex                         
 POSCAR found type information on POSCAR C 
 POSCAR found :  1 types and       2 ions
 Reading from existing POTCAR
 scaLAPACK will be used
 Reading from existing POTCAR
 LDA part: xc-table for Pade appr. of Perdew
 found WAVECAR, reading the header
 WAVECAR: different cutoff or change in lattice found
 POSCAR, INCAR and KPOINTS ok, starting setup
 FFT: planning ... GRIDC
 FFT: planning ... GRID_SOFT
 FFT: planning ... GRID
 reading WAVECAR
 the WAVECAR file was read successfully
 initial charge from wavefunction
 entering main loop
       N       E                     dE             d eps       ncg     rms          rms(c)
DAV:   1    -0.185839212152E+02   -0.18584E+02   -0.20855E+01   584   0.495E+01    0.528E+00
DAV:   2    -0.183042224225E+02    0.27970E+00   -0.23674E-01   512   0.479E+00    0.268E+00
DAV:   3    -0.182001605133E+02    0.10406E+00   -0.24341E-01   504   0.426E+00    0.225E-01
DAV:   4    -0.182001953228E+02   -0.34809E-04   -0.46210E-04   456   0.334E-01
   1 F= -.18200195E+02 E0= -.18200195E+02  d E =0.000000E+00
 writing wavefunctions
