 running    2 mpi-ranks, with    1 threads/rank, on    1 nodes
 distrk:  each k-point on    2 cores,    1 groups
 distr:  one band on    1 cores,    2 groups
 vasp.6.4.2 20Jul23 (build Oct 18 2023 12:49:41) complex                         
 POSCAR found :  1 types and       2 ions
 Reading from existing POTCAR
 scaLAPACK will be used
 Reading from existing POTCAR
 LDA part: xc-table for Pade appr. of Perdew
 found WAVECAR, reading the header
 WAVECAR: different cutoff or change in lattice found
 POSCAR, INCAR and KPOINTS ok, starting setup
 FFT: planning ... GRIDC
 FFT: planning ... GRID_SOFT
 FFT: planning ... GRID
 reading WAVECAR
 the WAVECAR file was read successfully
 initial charge from wavefunction
 entering main loop
       N       E                     dE             d eps       ncg     rms          rms(c)
DAV:   1    -0.174753103304E+02   -0.17475E+02   -0.45721E-01   536   0.681E+00    0.780E-01
DAV:   2    -0.174685761081E+02    0.67342E-02   -0.63135E-03   520   0.777E-01    0.416E-01
DAV:   3    -0.174661633597E+02    0.24127E-02   -0.61466E-03   512   0.645E-01    0.162E-02
DAV:   4    -0.174661655539E+02   -0.21942E-05   -0.12102E-05   336   0.529E-02
   1 F= -.17466166E+02 E0= -.17466166E+02  d E =0.000000E+00
 writing wavefunctions
