 running    4 mpi-ranks, with    1 threads/rank, on    1 nodes
 distrk:  each k-point on    4 cores,    1 groups
 distr:  one band on    1 cores,    4 groups
 vasp.6.4.2 20Jul23 (build Oct 18 2023 12:49:41) complex                         
 POSCAR found :  1 types and       2 ions
 Reading from existing POTCAR
 scaLAPACK will be used
 Reading from existing POTCAR
 LDA part: xc-table for Pade appr. of Perdew
 POSCAR, INCAR and KPOINTS ok, starting setup
 FFT: planning ... GRIDC
 FFT: planning ... GRID_SOFT
 FFT: planning ... GRID
 WAVECAR not read
 entering main loop
       N       E                     dE             d eps       ncg     rms          rms(c)
DAV:   1     0.977410066335E+01    0.97741E+01   -0.69954E+03  1160   0.153E+03
DAV:   2    -0.186250920044E+02   -0.28399E+02   -0.27497E+02  1744   0.147E+02
DAV:   3    -0.188517626835E+02   -0.22667E+00   -0.22667E+00  1288   0.171E+01
DAV:   4    -0.188520950604E+02   -0.33238E-03   -0.33238E-03  1624   0.677E-01
DAV:   5    -0.188520951686E+02   -0.10821E-06   -0.10372E-06  1216   0.902E-03    0.561E+00
DAV:   6    -0.183618501891E+02    0.49024E+00   -0.37421E-01  1192   0.492E+00    0.337E+00
DAV:   7    -0.181967207817E+02    0.16513E+00   -0.41318E-01  1360   0.528E+00    0.773E-01
DAV:   8    -0.181979760466E+02   -0.12553E-02   -0.18844E-03  1216   0.536E-01    0.462E-02
DAV:   9    -0.181979911770E+02   -0.15130E-04   -0.12786E-04  1640   0.102E-01
   1 F= -.18197991E+02 E0= -.18197991E+02  d E =0.000000E+00
 writing wavefunctions
