 running    2 mpi-ranks, with    1 threads/rank, on    1 nodes
 distrk:  each k-point on    2 cores,    1 groups
 distr:  one band on    1 cores,    2 groups
 vasp.6.4.2 20Jul23 (build Oct 18 2023 12:49:41) complex                         
 POSCAR found :  1 types and       2 ions
 Reading from existing POTCAR
 scaLAPACK will be used
 Reading from existing POTCAR
 LDA part: xc-table for Pade appr. of Perdew
 found WAVECAR, reading the header
 WAVECAR: different cutoff or change in lattice found
 POSCAR, INCAR and KPOINTS ok, starting setup
 FFT: planning ... GRIDC
 FFT: planning ... GRID_SOFT
 FFT: planning ... GRID
 reading WAVECAR
 the WAVECAR file was read successfully
 initial charge from wavefunction
 entering main loop
       N       E                     dE             d eps       ncg     rms          rms(c)
DAV:   1    -0.180781384301E+02   -0.18078E+02   -0.79306E-01   504   0.974E+00    0.117E+00
DAV:   2    -0.180674426182E+02    0.10696E-01   -0.92910E-03   488   0.102E+00    0.631E-01
DAV:   3    -0.180635020841E+02    0.39405E-02   -0.94401E-03   488   0.854E-01    0.286E-02
DAV:   4    -0.180635037483E+02   -0.16642E-05   -0.19481E-05   400   0.693E-02
   1 F= -.18063504E+02 E0= -.18063504E+02  d E =0.000000E+00
 writing wavefunctions
