 running    4 mpi-ranks, with    1 threads/rank, on    1 nodes
 distrk:  each k-point on    4 cores,    1 groups
 distr:  one band on    1 cores,    4 groups
 vasp.6.4.2 20Jul23 (build Oct 18 2023 12:49:41) complex                         
 POSCAR found :  1 types and       2 ions
 Reading from existing POTCAR
 scaLAPACK will be used
 Reading from existing POTCAR
 LDA part: xc-table for Pade appr. of Perdew
 POSCAR, INCAR and KPOINTS ok, starting setup
 FFT: planning ... GRIDC
 FFT: planning ... GRID_SOFT
 FFT: planning ... GRID
 WAVECAR not read
 entering main loop
       N       E                     dE             d eps       ncg     rms          rms(c)
DAV:   1     0.105859720756E+02    0.10586E+02   -0.68898E+03   264   0.152E+03
DAV:   2    -0.186868595317E+02   -0.29273E+02   -0.28780E+02   440   0.151E+02
DAV:   3    -0.188450071879E+02   -0.15815E+00   -0.15815E+00   272   0.152E+01
DAV:   4    -0.188452160371E+02   -0.20885E-03   -0.20885E-03   368   0.564E-01
DAV:   5    -0.188452160619E+02   -0.24880E-07   -0.24880E-07   240   0.570E-03    0.562E+00
DAV:   6    -0.183531928077E+02    0.49202E+00   -0.37452E-01   264   0.492E+00    0.337E+00
DAV:   7    -0.181872614182E+02    0.16593E+00   -0.41432E-01   296   0.529E+00    0.773E-01
DAV:   8    -0.181885403446E+02   -0.12789E-02   -0.18792E-03   264   0.530E-01    0.467E-02
DAV:   9    -0.181885545804E+02   -0.14236E-04   -0.13071E-04   360   0.103E-01
   1 F= -.18188555E+02 E0= -.18188555E+02  d E =0.000000E+00
 writing wavefunctions
