 running    4 mpi-ranks, with    1 threads/rank, on    1 nodes
 distrk:  each k-point on    4 cores,    1 groups
 distr:  one band on    1 cores,    4 groups
 vasp.6.4.2 20Jul23 (build Oct 18 2023 12:49:41) complex                         
 POSCAR found :  1 types and       2 ions
 Reading from existing POTCAR
 scaLAPACK will be used
 Reading from existing POTCAR
 LDA part: xc-table for Pade appr. of Perdew
 POSCAR, INCAR and KPOINTS ok, starting setup
 FFT: planning ... GRIDC
 FFT: planning ... GRID_SOFT
 FFT: planning ... GRID
 WAVECAR not read
 entering main loop
       N       E                     dE             d eps       ncg     rms          rms(c)
DAV:   1     0.138964140343E+02    0.13896E+02   -0.70934E+03   128   0.155E+03
DAV:   2    -0.185677724560E+02   -0.32464E+02   -0.31380E+02   240   0.155E+02
DAV:   3    -0.187437147470E+02   -0.17594E+00   -0.17594E+00   128   0.164E+01
DAV:   4    -0.187439689284E+02   -0.25418E-03   -0.25418E-03   184   0.632E-01
DAV:   5    -0.187439689476E+02   -0.19164E-07   -0.19164E-07   112   0.555E-03    0.568E+00
DAV:   6    -0.182352928934E+02    0.50868E+00   -0.38115E-01   128   0.500E+00    0.341E+00
DAV:   7    -0.180627823677E+02    0.17251E+00   -0.42621E-01   136   0.540E+00    0.779E-01
DAV:   8    -0.180642304434E+02   -0.14481E-02   -0.20736E-03   136   0.543E-01    0.491E-02
DAV:   9    -0.180642452889E+02   -0.14846E-04   -0.13704E-04   176   0.106E-01
   1 F= -.18064245E+02 E0= -.18064245E+02  d E =0.000000E+00
 writing wavefunctions
