 running    2 mpi-ranks, with    1 threads/rank, on    1 nodes
 distrk:  each k-point on    2 cores,    1 groups
 distr:  one band on    1 cores,    2 groups
 vasp.6.4.2 20Jul23 (build Oct 18 2023 12:49:41) complex                         
 POSCAR found :  1 types and       2 ions
 Reading from existing POTCAR
 scaLAPACK will be used
 Reading from existing POTCAR
 LDA part: xc-table for Pade appr. of Perdew
 found WAVECAR, reading the header
 WAVECAR: different cutoff or change in lattice found
 POSCAR, INCAR and KPOINTS ok, starting setup
 FFT: planning ... GRIDC
 FFT: planning ... GRID_SOFT
 FFT: planning ... GRID
 reading WAVECAR
 the WAVECAR file was read successfully
 initial charge from wavefunction
 entering main loop
       N       E                     dE             d eps       ncg     rms          rms(c)
DAV:   1    -0.181073636880E+02   -0.18107E+02   -0.58634E-01   560   0.804E+00    0.941E-01
DAV:   2    -0.180990970137E+02    0.82667E-02   -0.73084E-03   528   0.857E-01    0.500E-01
DAV:   3    -0.180960925779E+02    0.30044E-02   -0.73875E-03   504   0.728E-01    0.210E-02
DAV:   4    -0.180960946375E+02   -0.20596E-05   -0.14586E-05   360   0.599E-02
   1 F= -.18096095E+02 E0= -.18096095E+02  d E =0.000000E+00
 writing wavefunctions
