 running    4 mpi-ranks, with    1 threads/rank, on    1 nodes
 distrk:  each k-point on    4 cores,    1 groups
 distr:  one band on    1 cores,    4 groups
 vasp.6.4.2 20Jul23 (build Oct 18 2023 12:49:41) complex                         
 POSCAR found :  1 types and       2 ions
 Reading from existing POTCAR
 scaLAPACK will be used
 Reading from existing POTCAR
 LDA part: xc-table for Pade appr. of Perdew
 POSCAR, INCAR and KPOINTS ok, starting setup
 FFT: planning ... GRIDC
 FFT: planning ... GRID_SOFT
 FFT: planning ... GRID
 WAVECAR not read
 entering main loop
       N       E                     dE             d eps       ncg     rms          rms(c)
DAV:   1     0.124939309811E+02    0.12494E+02   -0.70626E+03   896   0.153E+03
DAV:   2    -0.186025570235E+02   -0.31096E+02   -0.30522E+02  1360   0.156E+02
DAV:   3    -0.188516967476E+02   -0.24914E+00   -0.24914E+00  1000   0.183E+01
DAV:   4    -0.188520871415E+02   -0.39039E-03   -0.39039E-03  1288   0.732E-01
DAV:   5    -0.188520872933E+02   -0.15177E-06   -0.15177E-06   952   0.972E-03    0.561E+00
DAV:   6    -0.183618365028E+02    0.49025E+00   -0.37420E-01   928   0.492E+00    0.337E+00
DAV:   7    -0.181967019953E+02    0.16513E+00   -0.41316E-01  1056   0.528E+00    0.773E-01
DAV:   8    -0.181979610674E+02   -0.12591E-02   -0.18766E-03   936   0.532E-01    0.463E-02
DAV:   9    -0.181979756566E+02   -0.14589E-04   -0.12838E-04  1280   0.102E-01
   1 F= -.18197976E+02 E0= -.18197976E+02  d E =0.000000E+00
 writing wavefunctions
