 running    2 mpi-ranks, with    1 threads/rank, on    1 nodes
 distrk:  each k-point on    2 cores,    1 groups
 distr:  one band on    1 cores,    2 groups
 vasp.6.4.2 20Jul23 (build Oct 18 2023 12:49:41) complex                         
 POSCAR found :  1 types and       2 ions
 Reading from existing POTCAR
 scaLAPACK will be used
 Reading from existing POTCAR
 LDA part: xc-table for Pade appr. of Perdew
 found WAVECAR, reading the header
 WAVECAR: different cutoff or change in lattice found
 POSCAR, INCAR and KPOINTS ok, starting setup
 FFT: planning ... GRIDC
 FFT: planning ... GRID_SOFT
 FFT: planning ... GRID
 reading WAVECAR
 the WAVECAR file was read successfully
 initial charge from wavefunction
 entering main loop
       N       E                     dE             d eps       ncg     rms          rms(c)
DAV:   1    -0.171359987495E+02   -0.17136E+02   -0.10461E+00   488   0.115E+01    0.142E+00
DAV:   2    -0.171223085688E+02    0.13690E-01   -0.11380E-02   480   0.117E+00    0.773E-01
DAV:   3    -0.171172287327E+02    0.50798E-02   -0.11901E-02   488   0.987E-01    0.389E-02
DAV:   4    -0.171172297552E+02   -0.10224E-05   -0.22772E-05   424   0.776E-02
   1 F= -.17117230E+02 E0= -.17117230E+02  d E =0.000000E+00
 writing wavefunctions
