 running    4 mpi-ranks, with    1 threads/rank, on    1 nodes
 distrk:  each k-point on    4 cores,    1 groups
 distr:  one band on    1 cores,    4 groups
 vasp.6.4.2 20Jul23 (build Oct 18 2023 12:49:41) complex                         
 POSCAR found :  1 types and       2 ions
 Reading from existing POTCAR
 scaLAPACK will be used
 Reading from existing POTCAR
 LDA part: xc-table for Pade appr. of Perdew
 POSCAR, INCAR and KPOINTS ok, starting setup
 FFT: planning ... GRIDC
 FFT: planning ... GRID_SOFT
 FFT: planning ... GRID
 WAVECAR not read
 entering main loop
       N       E                     dE             d eps       ncg     rms          rms(c)
DAV:   1     0.139479129998E+02    0.13948E+02   -0.69702E+03   464   0.153E+03
DAV:   2    -0.186159971550E+02   -0.32564E+02   -0.32280E+02   704   0.156E+02
DAV:   3    -0.188512084518E+02   -0.23521E+00   -0.23521E+00   512   0.182E+01
DAV:   4    -0.188515627119E+02   -0.35426E-03   -0.35426E-03   648   0.729E-01
DAV:   5    -0.188515628309E+02   -0.11907E-06   -0.11907E-06   504   0.902E-03    0.561E+00
DAV:   6    -0.183611297358E+02    0.49043E+00   -0.37420E-01   472   0.492E+00    0.337E+00
DAV:   7    -0.181959093985E+02    0.16522E+00   -0.41331E-01   544   0.528E+00    0.774E-01
DAV:   8    -0.181971649586E+02   -0.12556E-02   -0.18833E-03   488   0.536E-01    0.459E-02
DAV:   9    -0.181971792057E+02   -0.14247E-04   -0.12621E-04   640   0.101E-01
   1 F= -.18197179E+02 E0= -.18197179E+02  d E =0.000000E+00
 writing wavefunctions
