 running    2 mpi-ranks, with    1 threads/rank, on    1 nodes
 distrk:  each k-point on    2 cores,    1 groups
 distr:  one band on    1 cores,    2 groups
 vasp.6.4.2 20Jul23 (build Oct 18 2023 12:49:41) complex                         
 POSCAR found :  1 types and       2 ions
 Reading from existing POTCAR
 scaLAPACK will be used
 Reading from existing POTCAR
 LDA part: xc-table for Pade appr. of Perdew
 found WAVECAR, reading the header
 WAVECAR: different cutoff or change in lattice found
 POSCAR, INCAR and KPOINTS ok, starting setup
 FFT: planning ... GRIDC
 FFT: planning ... GRID_SOFT
 FFT: planning ... GRID
 reading WAVECAR
 the WAVECAR file was read successfully
 initial charge from wavefunction
 entering main loop
       N       E                     dE             d eps       ncg     rms          rms(c)
DAV:   1    -0.181843261412E+02   -0.18184E+02   -0.62896E-01   560   0.842E+00    0.992E-01
DAV:   2    -0.181755571177E+02    0.87690E-02   -0.76666E-03   528   0.885E-01    0.528E-01
DAV:   3    -0.181723599875E+02    0.31971E-02   -0.77947E-03   496   0.754E-01    0.224E-02
DAV:   4    -0.181723620167E+02   -0.20292E-05   -0.15543E-05   368   0.623E-02
   1 F= -.18172362E+02 E0= -.18172362E+02  d E =0.000000E+00
 writing wavefunctions
