 running    2 mpi-ranks, with    1 threads/rank, on    1 nodes
 distrk:  each k-point on    2 cores,    1 groups
 distr:  one band on    1 cores,    2 groups
 vasp.6.4.2 20Jul23 (build Oct 18 2023 12:49:41) complex                         
 POSCAR found :  1 types and       2 ions
 Reading from existing POTCAR
 scaLAPACK will be used
 Reading from existing POTCAR
 LDA part: xc-table for Pade appr. of Perdew
 found WAVECAR, reading the header
 WAVECAR: different cutoff or change in lattice found
 POSCAR, INCAR and KPOINTS ok, starting setup
 FFT: planning ... GRIDC
 FFT: planning ... GRID_SOFT
 FFT: planning ... GRID
 reading WAVECAR
 the WAVECAR file was read successfully
 initial charge from wavefunction
 entering main loop
       N       E                     dE             d eps       ncg     rms          rms(c)
DAV:   1    -0.176694623208E+02   -0.17669E+02   -0.48450E-01   544   0.708E+00    0.815E-01
DAV:   2    -0.176624042035E+02    0.70581E-02   -0.65221E-03   528   0.794E-01    0.434E-01
DAV:   3    -0.176598648759E+02    0.25393E-02   -0.64136E-03   488   0.663E-01    0.170E-02
DAV:   4    -0.176598671121E+02   -0.22362E-05   -0.13221E-05   360   0.560E-02
   1 F= -.17659867E+02 E0= -.17659867E+02  d E =0.000000E+00
 writing wavefunctions
