 running    2 mpi-ranks, with    1 threads/rank, on    1 nodes
 distrk:  each k-point on    2 cores,    1 groups
 distr:  one band on    1 cores,    2 groups
 vasp.6.4.2 20Jul23 (build Oct 18 2023 12:49:41) complex                         
 POSCAR found :  1 types and       2 ions
 Reading from existing POTCAR
 scaLAPACK will be used
 Reading from existing POTCAR
 LDA part: xc-table for Pade appr. of Perdew
 found WAVECAR, reading the header
 WAVECAR: different cutoff or change in lattice found
 POSCAR, INCAR and KPOINTS ok, starting setup
 FFT: planning ... GRIDC
 FFT: planning ... GRID_SOFT
 FFT: planning ... GRID
 reading WAVECAR
 the WAVECAR file was read successfully
 initial charge from wavefunction
 entering main loop
       N       E                     dE             d eps       ncg     rms          rms(c)
DAV:   1    -0.179911411687E+02   -0.17991E+02   -0.54862E-01   544   0.770E+00    0.894E-01
DAV:   2    -0.179833265851E+02    0.78146E-02   -0.70473E-03   528   0.839E-01    0.477E-01
DAV:   3    -0.179804938683E+02    0.28327E-02   -0.70352E-03   504   0.705E-01    0.195E-02
DAV:   4    -0.179804959504E+02   -0.20822E-05   -0.14024E-05   344   0.581E-02
   1 F= -.17980496E+02 E0= -.17980496E+02  d E =0.000000E+00
 writing wavefunctions
