 running    4 mpi-ranks, with    1 threads/rank, on    1 nodes
 distrk:  each k-point on    4 cores,    1 groups
 distr:  one band on    1 cores,    4 groups
 vasp.6.4.2 20Jul23 (build Oct 18 2023 12:49:41) complex                         
 POSCAR found :  1 types and       2 ions
 Reading from existing POTCAR
 scaLAPACK will be used
 Reading from existing POTCAR
 LDA part: xc-table for Pade appr. of Perdew
 POSCAR, INCAR and KPOINTS ok, starting setup
 FFT: planning ... GRIDC
 FFT: planning ... GRID_SOFT
 FFT: planning ... GRID
 WAVECAR not read
 entering main loop
       N       E                     dE             d eps       ncg     rms          rms(c)
DAV:   1     0.697287680897E+01    0.69729E+01   -0.67223E+03   160   0.153E+03
DAV:   2    -0.186674465142E+02   -0.25640E+02   -0.25519E+02   256   0.148E+02
DAV:   3    -0.188255177400E+02   -0.15807E+00   -0.15807E+00   176   0.147E+01
DAV:   4    -0.188257757191E+02   -0.25798E-03   -0.25798E-03   216   0.619E-01
DAV:   5    -0.188257758605E+02   -0.14144E-06   -0.14144E-06   160   0.108E-02    0.563E+00
DAV:   6    -0.183298945315E+02    0.49588E+00   -0.37578E-01   168   0.494E+00    0.338E+00
DAV:   7    -0.181623619191E+02    0.16753E+00   -0.41698E-01   184   0.532E+00    0.772E-01
DAV:   8    -0.181636861529E+02   -0.13242E-02   -0.18477E-03   168   0.520E-01    0.480E-02
DAV:   9    -0.181637013435E+02   -0.15191E-04   -0.13683E-04   224   0.105E-01
   1 F= -.18163701E+02 E0= -.18163701E+02  d E =0.000000E+00
 writing wavefunctions
