 running    2 mpi-ranks, with    1 threads/rank, on    1 nodes
 distrk:  each k-point on    2 cores,    1 groups
 distr:  one band on    1 cores,    2 groups
 vasp.6.4.2 20Jul23 (build Oct 18 2023 12:49:41) complex                         
 POSCAR found :  1 types and       2 ions
 Reading from existing POTCAR
 scaLAPACK will be used
 Reading from existing POTCAR
 LDA part: xc-table for Pade appr. of Perdew
 found WAVECAR, reading the header
 WAVECAR: different cutoff or change in lattice found
 POSCAR, INCAR and KPOINTS ok, starting setup
 FFT: planning ... GRIDC
 FFT: planning ... GRID_SOFT
 FFT: planning ... GRID
 reading WAVECAR
 the WAVECAR file was read successfully
 initial charge from wavefunction
 entering main loop
       N       E                     dE             d eps       ncg     rms          rms(c)
DAV:   1    -0.181820894274E+02   -0.18182E+02   -0.73110E-01   528   0.927E+00    0.110E+00
DAV:   2    -0.181721220020E+02    0.99674E-02   -0.86782E-03   512   0.970E-01    0.593E-01
DAV:   3    -0.181684617091E+02    0.36603E-02   -0.88058E-03   488   0.816E-01    0.260E-02
DAV:   4    -0.181684635264E+02   -0.18173E-05   -0.17761E-05   384   0.666E-02
   1 F= -.18168464E+02 E0= -.18168464E+02  d E =0.000000E+00
 writing wavefunctions
