 running    4 mpi-ranks, with    1 threads/rank, on    1 nodes
 distrk:  each k-point on    4 cores,    1 groups
 distr:  one band on    1 cores,    4 groups
 vasp.6.4.2 20Jul23 (build Oct 18 2023 12:49:41) complex                         
 POSCAR found :  1 types and       2 ions
 Reading from existing POTCAR
 scaLAPACK will be used
 Reading from existing POTCAR
 LDA part: xc-table for Pade appr. of Perdew
 POSCAR, INCAR and KPOINTS ok, starting setup
 FFT: planning ... GRIDC
 FFT: planning ... GRID_SOFT
 FFT: planning ... GRID
 WAVECAR not read
 entering main loop
       N       E                     dE             d eps       ncg     rms          rms(c)
DAV:   1     0.105936856001E+02    0.10594E+02   -0.70528E+03   760   0.154E+03
DAV:   2    -0.186213946421E+02   -0.29215E+02   -0.28305E+02  1144   0.150E+02
DAV:   3    -0.188517109538E+02   -0.23032E+00   -0.23032E+00   864   0.175E+01
DAV:   4    -0.188520592623E+02   -0.34831E-03   -0.34831E-03  1040   0.672E-01
DAV:   5    -0.188520593674E+02   -0.10512E-06   -0.10512E-06   808   0.881E-03    0.561E+00
DAV:   6    -0.183617952156E+02    0.49026E+00   -0.37421E-01   784   0.492E+00    0.337E+00
DAV:   7    -0.181966516894E+02    0.16514E+00   -0.41317E-01   888   0.528E+00    0.773E-01
DAV:   8    -0.181979108854E+02   -0.12592E-02   -0.18864E-03   784   0.535E-01    0.464E-02
DAV:   9    -0.181979261014E+02   -0.15216E-04   -0.12926E-04  1056   0.102E-01
   1 F= -.18197926E+02 E0= -.18197926E+02  d E =0.000000E+00
 writing wavefunctions
