 running    2 mpi-ranks, with    1 threads/rank, on    1 nodes
 distrk:  each k-point on    2 cores,    1 groups
 distr:  one band on    1 cores,    2 groups
 vasp.6.4.2 20Jul23 (build Oct 18 2023 12:49:41) complex                         
 POSCAR found :  1 types and       2 ions
 Reading from existing POTCAR
 scaLAPACK will be used
 Reading from existing POTCAR
 LDA part: xc-table for Pade appr. of Perdew
 found WAVECAR, reading the header
 WAVECAR: different cutoff or change in lattice found
 POSCAR, INCAR and KPOINTS ok, starting setup
 FFT: planning ... GRIDC
 FFT: planning ... GRID_SOFT
 FFT: planning ... GRID
 reading WAVECAR
 the WAVECAR file was read successfully
 initial charge from wavefunction
 entering main loop
       N       E                     dE             d eps       ncg     rms          rms(c)
DAV:   1    -0.175790064492E+02   -0.17579E+02   -0.94772E-01   488   0.108E+01    0.132E+00
DAV:   2    -0.175664706593E+02    0.12536E-01   -0.10556E-02   480   0.111E+00    0.720E-01
DAV:   3    -0.175618300051E+02    0.46407E-02   -0.10961E-02   472   0.938E-01    0.346E-02
DAV:   4    -0.175618312986E+02   -0.12934E-05   -0.22647E-05   440   0.764E-02
   1 F= -.17561831E+02 E0= -.17561831E+02  d E =0.000000E+00
 writing wavefunctions
