 running    2 mpi-ranks, with    1 threads/rank, on    1 nodes
 distrk:  each k-point on    2 cores,    1 groups
 distr:  one band on    1 cores,    2 groups
 vasp.6.4.2 20Jul23 (build Oct 18 2023 12:49:41) complex                         
 POSCAR found :  1 types and       2 ions
 Reading from existing POTCAR
 scaLAPACK will be used
 Reading from existing POTCAR
 LDA part: xc-table for Pade appr. of Perdew
 POSCAR, INCAR and KPOINTS ok, starting setup
 FFT: planning ... GRIDC
 FFT: planning ... GRID_SOFT
 FFT: planning ... GRID
 WAVECAR not read
 entering main loop
       N       E                     dE             d eps       ncg     rms          rms(c)
DAV:   1     0.124802017327E+02    0.12480E+02   -0.75661E+03   464   0.158E+03
DAV:   2    -0.177296498318E+02   -0.30210E+02   -0.29730E+02   696   0.172E+02
DAV:   3    -0.178704529508E+02   -0.14080E+00   -0.14080E+00   536   0.153E+01
DAV:   4    -0.178705434750E+02   -0.90524E-04   -0.90524E-04   656   0.380E-01
DAV:   5    -0.178705434825E+02   -0.75273E-08   -0.75274E-08   512   0.326E-03    0.810E+00
DAV:   6    -0.168414907090E+02    0.10291E+01   -0.76772E-01   480   0.763E+00    0.494E+00
DAV:   7    -0.164988959764E+02    0.34259E+00   -0.80356E-01   528   0.792E+00    0.135E+00
DAV:   8    -0.165005518731E+02   -0.16559E-02   -0.21307E-03   464   0.657E-01    0.747E-02
DAV:   9    -0.165005307933E+02    0.21080E-04   -0.15891E-04   592   0.116E-01
   1 F= -.16500531E+02 E0= -.16500531E+02  d E =0.000000E+00
 writing wavefunctions
