 running    4 mpi-ranks, with    1 threads/rank, on    1 nodes
 distrk:  each k-point on    4 cores,    1 groups
 distr:  one band on    1 cores,    4 groups
 vasp.6.4.2 20Jul23 (build Oct 18 2023 12:49:41) complex                         
 POSCAR found :  1 types and       2 ions
 Reading from existing POTCAR
 scaLAPACK will be used
 Reading from existing POTCAR
 LDA part: xc-table for Pade appr. of Perdew
 found WAVECAR, reading the header
 WAVECAR: different cutoff or change in lattice found
 POSCAR, INCAR and KPOINTS ok, starting setup
 FFT: planning ... GRIDC
 FFT: planning ... GRID_SOFT
 FFT: planning ... GRID
 reading WAVECAR
 the WAVECAR file was read successfully
 initial charge from wavefunction
 entering main loop
       N       E                     dE             d eps       ncg     rms          rms(c)
DAV:   1    -0.184632906163E+02   -0.18463E+02   -0.25937E+01   256   0.710E+01    0.202E+00
DAV:   2    -0.184421177932E+02    0.21173E-01   -0.23766E-02   296   0.158E+00    0.123E+00
DAV:   3    -0.184340667402E+02    0.80511E-02   -0.30136E-02   336   0.144E+00    0.189E-01
DAV:   4    -0.184342817579E+02   -0.21502E-03   -0.20742E-03   296   0.367E-01    0.110E-01
DAV:   5    -0.184339430568E+02    0.33870E-03   -0.66494E-04   256   0.205E-01    0.471E-03
DAV:   6    -0.184339424273E+02    0.62947E-06   -0.10329E-06   136   0.117E-02
   1 F= -.18433942E+02 E0= -.18433942E+02  d E =0.000000E+00
 writing wavefunctions
