 running    4 mpi-ranks, with    1 threads/rank, on    1 nodes
 distrk:  each k-point on    4 cores,    1 groups
 distr:  one band on    1 cores,    4 groups
 vasp.6.4.2 20Jul23 (build Oct 18 2023 12:49:41) complex                         
 POSCAR found :  1 types and       2 ions
 Reading from existing POTCAR
 scaLAPACK will be used
 Reading from existing POTCAR
 LDA part: xc-table for Pade appr. of Perdew
 POSCAR, INCAR and KPOINTS ok, starting setup
 FFT: planning ... GRIDC
 FFT: planning ... GRID_SOFT
 FFT: planning ... GRID
 WAVECAR not read
 entering main loop
       N       E                     dE             d eps       ncg     rms          rms(c)
DAV:   1     0.134086464819E+02    0.13409E+02   -0.69530E+03   320   0.153E+03
DAV:   2    -0.185647585486E+02   -0.31973E+02   -0.31643E+02   488   0.153E+02
DAV:   3    -0.188498569335E+02   -0.28510E+00   -0.28510E+00   376   0.189E+01
DAV:   4    -0.188502094772E+02   -0.35254E-03   -0.35254E-03   440   0.695E-01
DAV:   5    -0.188502096071E+02   -0.12991E-06   -0.12991E-06   336   0.106E-02    0.561E+00
DAV:   6    -0.183593911134E+02    0.49082E+00   -0.37426E-01   336   0.492E+00    0.337E+00
DAV:   7    -0.181939773846E+02    0.16541E+00   -0.41345E-01   368   0.528E+00    0.771E-01
DAV:   8    -0.181952504708E+02   -0.12731E-02   -0.19013E-03   328   0.531E-01    0.473E-02
DAV:   9    -0.181952661278E+02   -0.15657E-04   -0.13297E-04   432   0.104E-01
   1 F= -.18195266E+02 E0= -.18195266E+02  d E =0.000000E+00
 writing wavefunctions
