 running    2 mpi-ranks, with    1 threads/rank, on    1 nodes
 distrk:  each k-point on    2 cores,    1 groups
 distr:  one band on    1 cores,    2 groups
 vasp.6.4.2 20Jul23 (build Oct 18 2023 12:49:41) complex                         
 POSCAR found :  1 types and       2 ions
 Reading from existing POTCAR
 scaLAPACK will be used
 Reading from existing POTCAR
 LDA part: xc-table for Pade appr. of Perdew
 found WAVECAR, reading the header
 WAVECAR: different cutoff or change in lattice found
 POSCAR, INCAR and KPOINTS ok, starting setup
 FFT: planning ... GRIDC
 FFT: planning ... GRID_SOFT
 FFT: planning ... GRID
 reading WAVECAR
 the WAVECAR file was read successfully
 initial charge from wavefunction
 entering main loop
       N       E                     dE             d eps       ncg     rms          rms(c)
DAV:   1    -0.178431061894E+02   -0.17843E+02   -0.51459E-01   544   0.736E+00    0.853E-01
DAV:   2    -0.178356887631E+02    0.74174E-02   -0.67687E-03   528   0.814E-01    0.454E-01
DAV:   3    -0.178330103059E+02    0.26785E-02   -0.67047E-03   496   0.683E-01    0.182E-02
DAV:   4    -0.178330124819E+02   -0.21760E-05   -0.13562E-05   352   0.569E-02
   1 F= -.17833012E+02 E0= -.17833012E+02  d E =0.000000E+00
 writing wavefunctions
