PROCAR lm decomposed
# of k-points:   29         # of bands:    8         # of ions:    2

 k-point     1 :    0.00000000 0.00000000 0.00000000     weight = 0.00195312

band     1 # energy  -11.75444348 # occ.  2.00000000

ion      s     py     pz     px    dxy    dyz    dz2    dxz  x2-y2    tot
    1  0.276  0.000  0.000  0.000  0.000  0.000  0.000  0.000  0.000  0.276
    2  0.276  0.000  0.000  0.000  0.000  0.000  0.000  0.000  0.000  0.276
tot    0.551  0.000  0.000  0.000  0.000  0.000  0.000  0.000  0.000  0.551

band     2 # energy    9.65099961 # occ.  2.00000000

ion      s     py     pz     px    dxy    dyz    dz2    dxz  x2-y2    tot
    1  0.000  0.282  0.000  0.094  0.000  0.000  0.000  0.000  0.000  0.376
    2  0.000  0.282  0.000  0.094  0.000  0.000  0.000  0.000  0.000  0.376
tot    0.000  0.564  0.000  0.188  0.000  0.000  0.000  0.000  0.000  0.752

band     3 # energy    9.65099961 # occ.  2.00000000

ion      s     py     pz     px    dxy    dyz    dz2    dxz  x2-y2    tot
    1  0.000  0.010  0.334  0.031  0.000  0.000  0.000  0.000  0.000  0.376
    2  0.000  0.010  0.334  0.031  0.000  0.000  0.000  0.000  0.000  0.376
tot    0.000  0.021  0.668  0.063  0.000  0.000  0.000  0.000  0.000  0.752

band     4 # energy    9.65100054 # occ.  2.00000000

ion      s     py     pz     px    dxy    dyz    dz2    dxz  x2-y2    tot
    1  0.000  0.084  0.042  0.251  0.000  0.000  0.000  0.000  0.000  0.376
    2  0.000  0.084  0.042  0.251  0.000  0.000  0.000  0.000  0.000  0.376
tot    0.000  0.167  0.084  0.501  0.000  0.000  0.000  0.000  0.000  0.752

band     5 # energy   15.22846190 # occ.  0.00000000

ion      s     py     pz     px    dxy    dyz    dz2    dxz  x2-y2    tot
    1  0.000  0.008  0.263  0.025  0.000  0.000  0.000  0.000  0.000  0.296
    2  0.000  0.008  0.263  0.025  0.000  0.000  0.000  0.000  0.000  0.296
tot    0.000  0.017  0.526  0.049  0.000  0.000  0.000  0.000  0.000  0.592

band     6 # energy   15.22846190 # occ.  0.00000000

ion      s     py     pz     px    dxy    dyz    dz2    dxz  x2-y2    tot
    1  0.000  0.222  0.000  0.074  0.000  0.000  0.000  0.000  0.000  0.296
    2  0.000  0.222  0.000  0.074  0.000  0.000  0.000  0.000  0.000  0.296
tot    0.000  0.444  0.000  0.148  0.000  0.000  0.000  0.000  0.000  0.592

band     7 # energy   15.22846281 # occ.  0.00000000

ion      s     py     pz     px    dxy    dyz    dz2    dxz  x2-y2    tot
    1  0.000  0.066  0.033  0.197  0.000  0.000  0.000  0.000  0.000  0.296
    2  0.000  0.066  0.033  0.197  0.000  0.000  0.000  0.000  0.000  0.296
tot    0.000  0.132  0.066  0.395  0.000  0.000  0.000  0.000  0.000  0.592

band     8 # energy   22.86771710 # occ.  0.00000000

ion      s     py     pz     px    dxy    dyz    dz2    dxz  x2-y2    tot
    1  0.399  0.000  0.000  0.000  0.000  0.000  0.000  0.000  0.000  0.399
    2  0.399  0.000  0.000  0.000  0.000  0.000  0.000  0.000  0.000  0.399
tot    0.797  0.000  0.000  0.000  0.000  0.000  0.000  0.000  0.000  0.797


 k-point     2 :    0.12500000 0.00000000 0.00000000     weight = 0.01562500

band     1 # energy  -11.32396902 # occ.  2.00000000

ion      s     py     pz     px    dxy    dyz    dz2    dxz  x2-y2    tot
    1  0.272  0.001  0.001  0.004  0.000  0.000  0.000  0.000  0.000  0.277
    2  0.272  0.001  0.001  0.004  0.000  0.000  0.000  0.000  0.000  0.277
tot    0.543  0.003  0.001  0.008  0.000  0.000  0.000  0.000  0.000  0.555

band     2 # energy    7.24596618 # occ.  2.00000000

ion      s     py     pz     px    dxy    dyz    dz2    dxz  x2-y2    tot
    1  0.032  0.070  0.035  0.210  0.000  0.000  0.000  0.000  0.000  0.347
    2  0.032  0.070  0.035  0.210  0.000  0.000  0.000  0.000  0.000  0.347
tot    0.063  0.140  0.070  0.421  0.000  0.000  0.000  0.000  0.000  0.694

band     3 # energy    9.00242916 # occ.  2.00000000

ion      s     py     pz     px    dxy    dyz    dz2    dxz  x2-y2    tot
    1  0.000  0.123  0.245  0.000  0.000  0.000  0.000  0.000  0.000  0.368
    2  0.000  0.123  0.245  0.000  0.000  0.000  0.000  0.000  0.000  0.368
tot    0.000  0.245  0.491  0.000  0.000  0.000  0.000  0.000  0.000  0.736

band     4 # energy    9.00242991 # occ.  2.00000000

ion      s     py     pz     px    dxy    dyz    dz2    dxz  x2-y2    tot
    1  0.000  0.164  0.082  0.123  0.000  0.000  0.000  0.000  0.000  0.368
    2  0.000  0.164  0.082  0.123  0.000  0.000  0.000  0.000  0.000  0.368
tot    0.000  0.327  0.164  0.245  0.000  0.000  0.000  0.000  0.000  0.736

band     5 # energy   16.08201313 # occ.  0.00000000

ion      s     py     pz     px    dxy    dyz    dz2    dxz  x2-y2    tot
    1  0.000  0.102  0.204  0.000  0.000  0.000  0.000  0.000  0.000  0.306
    2  0.000  0.102  0.204  0.000  0.000  0.000  0.000  0.000  0.000  0.306
tot    0.000  0.204  0.408  0.000  0.000  0.000  0.000  0.000  0.000  0.612

band     6 # energy   16.08201396 # occ.  0.00000000

ion      s     py     pz     px    dxy    dyz    dz2    dxz  x2-y2    tot
    1  0.000  0.136  0.068  0.102  0.000  0.000  0.000  0.000  0.000  0.306
    2  0.000  0.136  0.068  0.102  0.000  0.000  0.000  0.000  0.000  0.306
tot    0.000  0.272  0.136  0.204  0.000  0.000  0.000  0.000  0.000  0.612

band     7 # energy   16.50186789 # occ.  0.00000000

ion      s     py     pz     px    dxy    dyz    dz2    dxz  x2-y2    tot
    1  0.039  0.060  0.030  0.180  0.000  0.000  0.000  0.000  0.000  0.310
    2  0.039  0.060  0.030  0.180  0.000  0.000  0.000  0.000  0.000  0.310
tot    0.079  0.120  0.060  0.361  0.000  0.000  0.000  0.000  0.000  0.620

band     8 # energy   23.24352886 # occ.  0.00000000

ion      s     py     pz     px    dxy    dyz    dz2    dxz  x2-y2    tot
    1  0.333  0.013  0.007  0.040  0.000  0.000  0.000  0.000  0.000  0.392
    2  0.333  0.013  0.007  0.040  0.000  0.000  0.000  0.000  0.000  0.392
tot    0.666  0.026  0.013  0.079  0.000  0.000  0.000  0.000  0.000  0.785


 k-point     3 :    0.25000000 0.00000000 0.00000000     weight = 0.01562500

band     1 # energy  -10.04591814 # occ.  2.00000000

ion      s     py     pz     px    dxy    dyz    dz2    dxz  x2-y2    tot
    1  0.261  0.005  0.002  0.015  0.000  0.000  0.000  0.000  0.000  0.283
    2  0.261  0.005  0.002  0.015  0.000  0.000  0.000  0.000  0.000  0.283
tot    0.523  0.010  0.005  0.029  0.000  0.000  0.000  0.000  0.000  0.567

band     2 # energy    3.08464728 # occ.  2.00000000

ion      s     py     pz     px    dxy    dyz    dz2    dxz  x2-y2    tot
    1  0.078  0.054  0.027  0.161  0.000  0.000  0.000  0.000  0.000  0.320
    2  0.078  0.054  0.027  0.161  0.000  0.000  0.000  0.000  0.000  0.320
tot    0.157  0.107  0.054  0.322  0.000  0.000  0.000  0.000  0.000  0.639

band     3 # energy    7.91438022 # occ.  2.00000000

ion      s     py     pz     px    dxy    dyz    dz2    dxz  x2-y2    tot
    1  0.000  0.121  0.242  0.000  0.000  0.000  0.000  0.000  0.000  0.362
    2  0.000  0.121  0.242  0.000  0.000  0.000  0.000  0.000  0.000  0.362
tot    0.000  0.242  0.483  0.000  0.000  0.000  0.000  0.000  0.000  0.725

band     4 # energy    7.91438090 # occ.  2.00000000

ion      s     py     pz     px    dxy    dyz    dz2    dxz  x2-y2    tot
    1  0.000  0.161  0.081  0.121  0.000  0.000  0.000  0.000  0.000  0.362
    2  0.000  0.161  0.081  0.121  0.000  0.000  0.000  0.000  0.000  0.362
tot    0.000  0.322  0.161  0.242  0.000  0.000  0.000  0.000  0.000  0.725

band     5 # energy   17.41731886 # occ.  0.00000000

ion      s     py     pz     px    dxy    dyz    dz2    dxz  x2-y2    tot
    1  0.000  0.101  0.202  0.000  0.000  0.000  0.000  0.000  0.000  0.304
    2  0.000  0.101  0.202  0.000  0.000  0.000  0.000  0.000  0.000  0.304
tot    0.000  0.202  0.405  0.000  0.000  0.000  0.000  0.000  0.000  0.607

band     6 # energy   17.41731970 # occ.  0.00000000

ion      s     py     pz     px    dxy    dyz    dz2    dxz  x2-y2    tot
    1  0.000  0.135  0.067  0.101  0.000  0.000  0.000  0.000  0.000  0.304
    2  0.000  0.135  0.067  0.101  0.000  0.000  0.000  0.000  0.000  0.304
tot    0.000  0.270  0.135  0.202  0.000  0.000  0.000  0.000  0.000  0.607

band     7 # energy   17.75025057 # occ.  0.00000000

ion      s     py     pz     px    dxy    dyz    dz2    dxz  x2-y2    tot
    1  0.160  0.034  0.017  0.101  0.000  0.000  0.000  0.000  0.000  0.311
    2  0.160  0.034  0.017  0.101  0.000  0.000  0.000  0.000  0.000  0.311
tot    0.319  0.067  0.034  0.202  0.000  0.000  0.000  0.000  0.000  0.622

band     8 # energy   24.20456395 # occ.  0.00000000

ion      s     py     pz     px    dxy    dyz    dz2    dxz  x2-y2    tot
    1  0.169  0.042  0.021  0.127  0.000  0.000  0.000  0.000  0.000  0.360
    2  0.169  0.042  0.021  0.127  0.000  0.000  0.000  0.000  0.000  0.360
tot    0.338  0.085  0.042  0.254  0.000  0.000  0.000  0.000  0.000  0.720


 k-point     4 :    0.37500000 0.00000000 0.00000000     weight = 0.01562500

band     1 # energy   -7.98899856 # occ.  2.00000000

ion      s     py     pz     px    dxy    dyz    dz2    dxz  x2-y2    tot
    1  0.252  0.010  0.005  0.029  0.000  0.000  0.000  0.000  0.000  0.295
    2  0.252  0.010  0.005  0.029  0.000  0.000  0.000  0.000  0.000  0.295
tot    0.504  0.019  0.010  0.057  0.000  0.000  0.000  0.000  0.000  0.590

band     2 # energy   -0.98139985 # occ.  2.00000000

ion      s     py     pz     px    dxy    dyz    dz2    dxz  x2-y2    tot
    1  0.111  0.041  0.021  0.124  0.000  0.000  0.000  0.000  0.000  0.297
    2  0.111  0.041  0.021  0.124  0.000  0.000  0.000  0.000  0.000  0.297
tot    0.222  0.083  0.041  0.249  0.000  0.000  0.000  0.000  0.000  0.595

band     3 # energy    7.13568349 # occ.  2.00000000

ion      s     py     pz     px    dxy    dyz    dz2    dxz  x2-y2    tot
    1  0.000  0.121  0.241  0.000  0.000  0.000  0.000  0.000  0.000  0.362
    2  0.000  0.121  0.241  0.000  0.000  0.000  0.000  0.000  0.000  0.362
tot    0.000  0.241  0.483  0.000  0.000  0.000  0.000  0.000  0.000  0.724

band     4 # energy    7.13568416 # occ.  2.00000000

ion      s     py     pz     px    dxy    dyz    dz2    dxz  x2-y2    tot
    1  0.000  0.161  0.080  0.121  0.000  0.000  0.000  0.000  0.000  0.362
    2  0.000  0.161  0.080  0.121  0.000  0.000  0.000  0.000  0.000  0.362
tot    0.000  0.322  0.161  0.241  0.000  0.000  0.000  0.000  0.000  0.724

band     5 # energy   18.01452418 # occ.  0.00000000

ion      s     py     pz     px    dxy    dyz    dz2    dxz  x2-y2    tot
    1  0.000  0.092  0.184  0.000  0.000  0.000  0.000  0.000  0.000  0.276
    2  0.000  0.092  0.184  0.000  0.000  0.000  0.000  0.000  0.000  0.276
tot    0.000  0.184  0.369  0.000  0.000  0.000  0.000  0.000  0.000  0.553

band     6 # energy   18.01452497 # occ.  0.00000000

ion      s     py     pz     px    dxy    dyz    dz2    dxz  x2-y2    tot
    1  0.000  0.123  0.061  0.092  0.000  0.000  0.000  0.000  0.000  0.276
    2  0.000  0.123  0.061  0.092  0.000  0.000  0.000  0.000  0.000  0.276
tot    0.000  0.246  0.123  0.184  0.000  0.000  0.000  0.000  0.000  0.553

band     7 # energy   18.28630817 # occ.  0.00000000

ion      s     py     pz     px    dxy    dyz    dz2    dxz  x2-y2    tot
    1  0.260  0.011  0.006  0.034  0.000  0.000  0.000  0.000  0.000  0.311
    2  0.260  0.011  0.006  0.034  0.000  0.000  0.000  0.000  0.000  0.311
tot    0.520  0.023  0.011  0.068  0.000  0.000  0.000  0.000  0.000  0.622

band     8 # energy   25.05875788 # occ.  0.00000000

ion      s     py     pz     px    dxy    dyz    dz2    dxz  x2-y2    tot
    1  0.036  0.057  0.029  0.171  0.000  0.000  0.000  0.000  0.000  0.292
    2  0.036  0.057  0.029  0.171  0.000  0.000  0.000  0.000  0.000  0.292
tot    0.071  0.114  0.057  0.342  0.000  0.000  0.000  0.000  0.000  0.585


 k-point     5 :    0.50000000 0.00000000 0.00000000     weight = 0.00781250

band     1 # energy   -6.00941247 # occ.  2.00000000

ion      s     py     pz     px    dxy    dyz    dz2    dxz  x2-y2    tot
    1  0.292  0.007  0.003  0.021  0.000  0.000  0.000  0.000  0.000  0.323
    2  0.292  0.007  0.003  0.021  0.000  0.000  0.000  0.000  0.000  0.323
tot    0.583  0.014  0.007  0.042  0.000  0.000  0.000  0.000  0.000  0.646

band     2 # energy   -3.66436123 # occ.  2.00000000

ion      s     py     pz     px    dxy    dyz    dz2    dxz  x2-y2    tot
    1  0.079  0.042  0.021  0.125  0.000  0.000  0.000  0.000  0.000  0.266
    2  0.079  0.042  0.021  0.125  0.000  0.000  0.000  0.000  0.000  0.266
tot    0.158  0.083  0.042  0.249  0.000  0.000  0.000  0.000  0.000  0.532

band     3 # energy    6.86446231 # occ.  2.00000000

ion      s     py     pz     px    dxy    dyz    dz2    dxz  x2-y2    tot
    1  0.000  0.121  0.242  0.000  0.000  0.000  0.000  0.000  0.000  0.363
    2  0.000  0.121  0.242  0.000  0.000  0.000  0.000  0.000  0.000  0.363
tot    0.000  0.242  0.483  0.000  0.000  0.000  0.000  0.000  0.000  0.725

band     4 # energy    6.86446296 # occ.  2.00000000

ion      s     py     pz     px    dxy    dyz    dz2    dxz  x2-y2    tot
    1  0.000  0.161  0.081  0.121  0.000  0.000  0.000  0.000  0.000  0.363
    2  0.000  0.161  0.081  0.121  0.000  0.000  0.000  0.000  0.000  0.363
tot    0.000  0.322  0.161  0.242  0.000  0.000  0.000  0.000  0.000  0.725

band     5 # energy   18.09000391 # occ.  0.00000000

ion      s     py     pz     px    dxy    dyz    dz2    dxz  x2-y2    tot
    1  0.000  0.087  0.174  0.000  0.000  0.000  0.000  0.000  0.000  0.261
    2  0.000  0.087  0.174  0.000  0.000  0.000  0.000  0.000  0.000  0.261
tot    0.000  0.174  0.348  0.000  0.000  0.000  0.000  0.000  0.000  0.522

band     6 # energy   18.09000463 # occ.  0.00000000

ion      s     py     pz     px    dxy    dyz    dz2    dxz  x2-y2    tot
    1  0.000  0.116  0.058  0.087  0.000  0.000  0.000  0.000  0.000  0.261
    2  0.000  0.116  0.058  0.087  0.000  0.000  0.000  0.000  0.000  0.261
tot    0.000  0.232  0.116  0.174  0.000  0.000  0.000  0.000  0.000  0.522

band     7 # energy   18.43150569 # occ.  0.00000000

ion      s     py     pz     px    dxy    dyz    dz2    dxz  x2-y2    tot
    1  0.294  0.004  0.002  0.012  0.000  0.000  0.000  0.000  0.000  0.312
    2  0.294  0.004  0.002  0.012  0.000  0.000  0.000  0.000  0.000  0.312
tot    0.588  0.008  0.004  0.024  0.000  0.000  0.000  0.000  0.000  0.624

band     8 # energy   25.30261214 # occ.  0.00000000

ion      s     py     pz     px    dxy    dyz    dz2    dxz  x2-y2    tot
    1  0.001  0.056  0.028  0.168  0.000  0.000  0.000  0.000  0.000  0.252
    2  0.001  0.056  0.028  0.168  0.000  0.000  0.000  0.000  0.000  0.252
tot    0.002  0.112  0.056  0.335  0.000  0.000  0.000  0.000  0.000  0.505


 k-point     6 :    0.12500000 0.12500000 0.00000000     weight = 0.01171875

band     1 # energy  -11.18066974 # occ.  2.00000000

ion      s     py     pz     px    dxy    dyz    dz2    dxz  x2-y2    tot
    1  0.270  0.001  0.003  0.004  0.000  0.000  0.000  0.000  0.000  0.278
    2  0.270  0.001  0.003  0.004  0.000  0.000  0.000  0.000  0.000  0.278
tot    0.541  0.003  0.005  0.008  0.000  0.000  0.000  0.000  0.000  0.556

band     2 # energy    7.93565893 # occ.  2.00000000

ion      s     py     pz     px    dxy    dyz    dz2    dxz  x2-y2    tot
    1  0.000  0.264  0.000  0.088  0.000  0.000  0.000  0.000  0.000  0.352
    2  0.000  0.264  0.000  0.088  0.000  0.000  0.000  0.000  0.000  0.352
tot    0.000  0.528  0.000  0.176  0.000  0.000  0.000  0.000  0.000  0.704

band     3 # energy    7.93565945 # occ.  2.00000000

ion      s     py     pz     px    dxy    dyz    dz2    dxz  x2-y2    tot
    1  0.000  0.029  0.235  0.088  0.000  0.000  0.000  0.000  0.000  0.352
    2  0.000  0.029  0.235  0.088  0.000  0.000  0.000  0.000  0.000  0.352
tot    0.000  0.059  0.469  0.176  0.000  0.000  0.000  0.000  0.000  0.704

band     4 # energy    8.32637811 # occ.  2.00000000

ion      s     py     pz     px    dxy    dyz    dz2    dxz  x2-y2    tot
    1  0.049  0.054  0.108  0.162  0.000  0.000  0.000  0.000  0.000  0.374
    2  0.049  0.054  0.108  0.162  0.000  0.000  0.000  0.000  0.000  0.374
tot    0.098  0.108  0.217  0.325  0.000  0.000  0.000  0.000  0.000  0.748

band     5 # energy   14.81911770 # occ.  0.00000000

ion      s     py     pz     px    dxy    dyz    dz2    dxz  x2-y2    tot
    1  0.029  0.042  0.083  0.125  0.000  0.000  0.000  0.000  0.000  0.278
    2  0.029  0.042  0.083  0.125  0.000  0.000  0.000  0.000  0.000  0.278
tot    0.057  0.083  0.166  0.249  0.000  0.000  0.000  0.000  0.000  0.555

band     6 # energy   17.43172020 # occ.  0.00000000

ion      s     py     pz     px    dxy    dyz    dz2    dxz  x2-y2    tot
    1  0.000  0.244  0.000  0.081  0.000  0.000  0.000  0.000  0.000  0.325
    2  0.000  0.244  0.000  0.081  0.000  0.000  0.000  0.000  0.000  0.325
tot    0.000  0.487  0.000  0.162  0.000  0.000  0.000  0.000  0.000  0.650

band     7 # energy   17.43172090 # occ.  0.00000000

ion      s     py     pz     px    dxy    dyz    dz2    dxz  x2-y2    tot
    1  0.000  0.027  0.217  0.081  0.000  0.000  0.000  0.000  0.000  0.325
    2  0.000  0.027  0.217  0.081  0.000  0.000  0.000  0.000  0.000  0.325
tot    0.000  0.054  0.433  0.162  0.000  0.000  0.000  0.000  0.000  0.650

band     8 # energy   22.87449402 # occ.  0.00000000

ion      s     py     pz     px    dxy    dyz    dz2    dxz  x2-y2    tot
    1  0.303  0.009  0.019  0.028  0.000  0.000  0.000  0.000  0.000  0.358
    2  0.303  0.009  0.019  0.028  0.000  0.000  0.000  0.000  0.000  0.358
tot    0.606  0.019  0.037  0.056  0.000  0.000  0.000  0.000  0.000  0.717


 k-point     7 :    0.25000000 0.12500000 0.00000000     weight = 0.04687500

band     1 # energy  -10.18535055 # occ.  2.00000000

ion      s     py     pz     px    dxy    dyz    dz2    dxz  x2-y2    tot
    1  0.262  0.000  0.006  0.015  0.000  0.000  0.000  0.000  0.000  0.283
    2  0.262  0.000  0.006  0.015  0.000  0.000  0.000  0.000  0.000  0.283
tot    0.524  0.000  0.011  0.030  0.000  0.000  0.000  0.000  0.000  0.565

band     2 # energy    4.58217668 # occ.  2.00000000

ion      s     py     pz     px    dxy    dyz    dz2    dxz  x2-y2    tot
    1  0.064  0.076  0.025  0.169  0.000  0.000  0.000  0.000  0.000  0.334
    2  0.064  0.076  0.025  0.169  0.000  0.000  0.000  0.000  0.000  0.334
tot    0.127  0.152  0.050  0.338  0.000  0.000  0.000  0.000  0.000  0.667

band     3 # energy    6.79125705 # occ.  2.00000000

ion      s     py     pz     px    dxy    dyz    dz2    dxz  x2-y2    tot
    1  0.000  0.029  0.230  0.086  0.000  0.000  0.000  0.000  0.000  0.345
    2  0.000  0.029  0.230  0.086  0.000  0.000  0.000  0.000  0.000  0.345
tot    0.000  0.058  0.461  0.173  0.000  0.000  0.000  0.000  0.000  0.691

band     4 # energy    7.62662674 # occ.  2.00000000

ion      s     py     pz     px    dxy    dyz    dz2    dxz  x2-y2    tot
    1  0.034  0.215  0.075  0.040  0.000  0.000  0.000  0.000  0.000  0.364
    2  0.034  0.215  0.075  0.040  0.000  0.000  0.000  0.000  0.000  0.364
tot    0.067  0.430  0.150  0.080  0.000  0.000  0.000  0.000  0.000  0.728

band     5 # energy   15.47304127 # occ.  0.00000000

ion      s     py     pz     px    dxy    dyz    dz2    dxz  x2-y2    tot
    1  0.039  0.116  0.065  0.055  0.000  0.000  0.000  0.000  0.000  0.275
    2  0.039  0.116  0.065  0.055  0.000  0.000  0.000  0.000  0.000  0.275
tot    0.079  0.231  0.129  0.109  0.000  0.000  0.000  0.000  0.000  0.549

band     6 # energy   18.95013543 # occ.  0.00000000

ion      s     py     pz     px    dxy    dyz    dz2    dxz  x2-y2    tot
    1  0.058  0.205  0.000  0.068  0.000  0.000  0.000  0.000  0.000  0.332
    2  0.058  0.205  0.000  0.068  0.000  0.000  0.000  0.000  0.000  0.332
tot    0.117  0.411  0.001  0.136  0.000  0.000  0.000  0.000  0.000  0.664

band     7 # energy   19.04131123 # occ.  0.00000000

ion      s     py     pz     px    dxy    dyz    dz2    dxz  x2-y2    tot
    1  0.000  0.028  0.221  0.083  0.000  0.000  0.000  0.000  0.000  0.331
    2  0.000  0.028  0.221  0.083  0.000  0.000  0.000  0.000  0.000  0.331
tot    0.000  0.055  0.441  0.165  0.000  0.000  0.000  0.000  0.000  0.662

band     8 # energy   22.45356167 # occ.  0.00000000

ion      s     py     pz     px    dxy    dyz    dz2    dxz  x2-y2    tot
    1  0.168  0.004  0.022  0.077  0.000  0.000  0.000  0.000  0.000  0.271
    2  0.168  0.004  0.022  0.077  0.000  0.000  0.000  0.000  0.000  0.271
tot    0.337  0.008  0.044  0.154  0.000  0.000  0.000  0.000  0.000  0.543


 k-point     8 :    0.37500000 0.12500000 0.00000000     weight = 0.04687500

band     1 # energy   -8.38100385 # occ.  2.00000000

ion      s     py     pz     px    dxy    dyz    dz2    dxz  x2-y2    tot
    1  0.251  0.001  0.009  0.031  0.000  0.000  0.000  0.000  0.000  0.292
    2  0.251  0.001  0.009  0.031  0.000  0.000  0.000  0.000  0.000  0.292
tot    0.501  0.002  0.019  0.061  0.000  0.000  0.000  0.000  0.000  0.584

band     2 # energy    0.57047664 # occ.  2.00000000

ion      s     py     pz     px    dxy    dyz    dz2    dxz  x2-y2    tot
    1  0.104  0.062  0.017  0.127  0.000  0.000  0.000  0.000  0.000  0.309
    2  0.104  0.062  0.017  0.127  0.000  0.000  0.000  0.000  0.000  0.309
tot    0.208  0.124  0.034  0.253  0.000  0.000  0.000  0.000  0.000  0.619

band     3 # energy    6.14634774 # occ.  2.00000000

ion      s     py     pz     px    dxy    dyz    dz2    dxz  x2-y2    tot
    1  0.000  0.029  0.231  0.087  0.000  0.000  0.000  0.000  0.000  0.347
    2  0.000  0.029  0.231  0.087  0.000  0.000  0.000  0.000  0.000  0.347
tot    0.000  0.058  0.462  0.173  0.000  0.000  0.000  0.000  0.000  0.693

band     4 # energy    6.46575933 # occ.  2.00000000

ion      s     py     pz     px    dxy    dyz    dz2    dxz  x2-y2    tot
    1  0.036  0.208  0.074  0.037  0.000  0.000  0.000  0.000  0.000  0.355
    2  0.036  0.208  0.074  0.037  0.000  0.000  0.000  0.000  0.000  0.355
tot    0.072  0.416  0.149  0.074  0.000  0.000  0.000  0.000  0.000  0.710

band     5 # energy   16.63729464 # occ.  0.00000000

ion      s     py     pz     px    dxy    dyz    dz2    dxz  x2-y2    tot
    1  0.048  0.128  0.052  0.028  0.000  0.000  0.000  0.000  0.000  0.257
    2  0.048  0.128  0.052  0.028  0.000  0.000  0.000  0.000  0.000  0.257
tot    0.097  0.256  0.104  0.056  0.000  0.000  0.000  0.000  0.000  0.513

band     6 # energy   19.66876341 # occ.  0.00000000

ion      s     py     pz     px    dxy    dyz    dz2    dxz  x2-y2    tot
    1  0.153  0.151  0.002  0.023  0.000  0.000  0.000  0.000  0.000  0.329
    2  0.153  0.151  0.002  0.023  0.000  0.000  0.000  0.000  0.000  0.329
tot    0.305  0.302  0.004  0.046  0.000  0.000  0.000  0.000  0.000  0.657

band     7 # energy   19.70854327 # occ.  0.00000000

ion      s     py     pz     px    dxy    dyz    dz2    dxz  x2-y2    tot
    1  0.000  0.026  0.206  0.077  0.000  0.000  0.000  0.000  0.000  0.309
    2  0.000  0.026  0.206  0.077  0.000  0.000  0.000  0.000  0.000  0.309
tot    0.000  0.051  0.412  0.154  0.000  0.000  0.000  0.000  0.000  0.617

band     8 # energy   23.08413254 # occ.  0.00000000

ion      s     py     pz     px    dxy    dyz    dz2    dxz  x2-y2    tot
    1  0.070  0.052  0.021  0.109  0.000  0.000  0.000  0.000  0.000  0.253
    2  0.070  0.052  0.021  0.109  0.000  0.000  0.000  0.000  0.000  0.253
tot    0.140  0.104  0.043  0.219  0.000  0.000  0.000  0.000  0.000  0.506


 k-point     9 :    0.50000000 0.12500000 0.00000000     weight = 0.04687500

band     1 # energy   -6.06215943 # occ.  2.00000000

ion      s     py     pz     px    dxy    dyz    dz2    dxz  x2-y2    tot
    1  0.266  0.004  0.010  0.034  0.000  0.000  0.000  0.000  0.000  0.315
    2  0.266  0.004  0.010  0.034  0.000  0.000  0.000  0.000  0.000  0.315
tot    0.533  0.008  0.020  0.068  0.000  0.000  0.000  0.000  0.000  0.629

band     2 # energy   -2.85155007 # occ.  2.00000000

ion      s     py     pz     px    dxy    dyz    dz2    dxz  x2-y2    tot
    1  0.101  0.051  0.016  0.113  0.000  0.000  0.000  0.000  0.000  0.280
    2  0.101  0.051  0.016  0.113  0.000  0.000  0.000  0.000  0.000  0.280
tot    0.202  0.101  0.032  0.226  0.000  0.000  0.000  0.000  0.000  0.560

band     3 # energy    5.51800462 # occ.  2.00000000

ion      s     py     pz     px    dxy    dyz    dz2    dxz  x2-y2    tot
    1  0.036  0.211  0.070  0.030  0.000  0.000  0.000  0.000  0.000  0.347
    2  0.036  0.211  0.070  0.030  0.000  0.000  0.000  0.000  0.000  0.347
tot    0.073  0.421  0.141  0.060  0.000  0.000  0.000  0.000  0.000  0.694

band     4 # energy    6.14464629 # occ.  2.00000000

ion      s     py     pz     px    dxy    dyz    dz2    dxz  x2-y2    tot
    1  0.000  0.029  0.235  0.088  0.000  0.000  0.000  0.000  0.000  0.352
    2  0.000  0.029  0.235  0.088  0.000  0.000  0.000  0.000  0.000  0.352
tot    0.000  0.059  0.469  0.176  0.000  0.000  0.000  0.000  0.000  0.704

band     5 # energy   17.24683842 # occ.  0.00000000

ion      s     py     pz     px    dxy    dyz    dz2    dxz  x2-y2    tot
    1  0.055  0.110  0.045  0.026  0.000  0.000  0.000  0.000  0.000  0.236
    2  0.055  0.110  0.045  0.026  0.000  0.000  0.000  0.000  0.000  0.236
tot    0.110  0.219  0.089  0.053  0.000  0.000  0.000  0.000  0.000  0.471

band     6 # energy   19.43755261 # occ.  0.00000000

ion      s     py     pz     px    dxy    dyz    dz2    dxz  x2-y2    tot
    1  0.000  0.024  0.189  0.071  0.000  0.000  0.000  0.000  0.000  0.284
    2  0.000  0.024  0.189  0.071  0.000  0.000  0.000  0.000  0.000  0.284
tot    0.000  0.047  0.379  0.142  0.000  0.000  0.000  0.000  0.000  0.568

band     7 # energy   19.86961743 # occ.  0.00000000

ion      s     py     pz     px    dxy    dyz    dz2    dxz  x2-y2    tot
    1  0.203  0.105  0.009  0.004  0.000  0.000  0.000  0.000  0.000  0.322
    2  0.203  0.105  0.009  0.004  0.000  0.000  0.000  0.000  0.000  0.322
tot    0.407  0.211  0.018  0.008  0.000  0.000  0.000  0.000  0.000  0.644

band     8 # energy   24.77872281 # occ.  0.00000000

ion      s     py     pz     px    dxy    dyz    dz2    dxz  x2-y2    tot
    1  0.017  0.098  0.033  0.144  0.000  0.000  0.000  0.000  0.000  0.293
    2  0.017  0.098  0.033  0.144  0.000  0.000  0.000  0.000  0.000  0.293
tot    0.034  0.197  0.066  0.289  0.000  0.000  0.000  0.000  0.000  0.586


 k-point    10 :   -0.37500000 0.12500000 0.00000000     weight = 0.04687500

band     1 # energy   -6.82655153 # occ.  2.00000000

ion      s     py     pz     px    dxy    dyz    dz2    dxz  x2-y2    tot
    1  0.252  0.025  0.002  0.025  0.000  0.000  0.000  0.000  0.000  0.304
    2  0.252  0.025  0.002  0.025  0.000  0.000  0.000  0.000  0.000  0.304
tot    0.504  0.050  0.004  0.049  0.000  0.000  0.000  0.000  0.000  0.608

band     2 # energy   -1.85377120 # occ.  2.00000000

ion      s     py     pz     px    dxy    dyz    dz2    dxz  x2-y2    tot
    1  0.112  0.026  0.026  0.127  0.000  0.000  0.000  0.000  0.000  0.292
    2  0.112  0.026  0.026  0.127  0.000  0.000  0.000  0.000  0.000  0.292
tot    0.225  0.052  0.052  0.255  0.000  0.000  0.000  0.000  0.000  0.584

band     3 # energy    5.08937656 # occ.  2.00000000

ion      s     py     pz     px    dxy    dyz    dz2    dxz  x2-y2    tot
    1  0.035  0.217  0.065  0.023  0.000  0.000  0.000  0.000  0.000  0.340
    2  0.035  0.217  0.065  0.023  0.000  0.000  0.000  0.000  0.000  0.340
tot    0.070  0.433  0.130  0.047  0.000  0.000  0.000  0.000  0.000  0.680

band     4 # energy    6.75698619 # occ.  2.00000000

ion      s     py     pz     px    dxy    dyz    dz2    dxz  x2-y2    tot
    1  0.000  0.030  0.239  0.090  0.000  0.000  0.000  0.000  0.000  0.359
    2  0.000  0.030  0.239  0.090  0.000  0.000  0.000  0.000  0.000  0.359
tot    0.000  0.060  0.479  0.179  0.000  0.000  0.000  0.000  0.000  0.718

band     5 # energy   17.82976257 # occ.  0.00000000

ion      s     py     pz     px    dxy    dyz    dz2    dxz  x2-y2    tot
    1  0.061  0.104  0.046  0.039  0.000  0.000  0.000  0.000  0.000  0.250
    2  0.061  0.104  0.046  0.039  0.000  0.000  0.000  0.000  0.000  0.250
tot    0.122  0.208  0.091  0.078  0.000  0.000  0.000  0.000  0.000  0.499

band     6 # energy   18.79118492 # occ.  0.00000000

ion      s     py     pz     px    dxy    dyz    dz2    dxz  x2-y2    tot
    1  0.000  0.024  0.190  0.071  0.000  0.000  0.000  0.000  0.000  0.285
    2  0.000  0.024  0.190  0.071  0.000  0.000  0.000  0.000  0.000  0.285
tot    0.000  0.048  0.380  0.143  0.000  0.000  0.000  0.000  0.000  0.570

band     7 # energy   19.77662128 # occ.  0.00000000

ion      s     py     pz     px    dxy    dyz    dz2    dxz  x2-y2    tot
    1  0.186  0.083  0.024  0.020  0.000  0.000  0.000  0.000  0.000  0.314
    2  0.186  0.083  0.024  0.020  0.000  0.000  0.000  0.000  0.000  0.314
tot    0.372  0.167  0.049  0.040  0.000  0.000  0.000  0.000  0.000  0.628

band     8 # energy   24.97861696 # occ.  0.00000000

ion      s     py     pz     px    dxy    dyz    dz2    dxz  x2-y2    tot
    1  0.032  0.074  0.042  0.170  0.000  0.000  0.000  0.000  0.000  0.318
    2  0.032  0.074  0.042  0.170  0.000  0.000  0.000  0.000  0.000  0.318
tot    0.064  0.147  0.085  0.340  0.000  0.000  0.000  0.000  0.000  0.636


 k-point    11 :   -0.25000000 0.12500000 0.00000000     weight = 0.04687500

band     1 # energy   -9.06783916 # occ.  2.00000000

ion      s     py     pz     px    dxy    dyz    dz2    dxz  x2-y2    tot
    1  0.254  0.019  0.001  0.014  0.000  0.000  0.000  0.000  0.000  0.288
    2  0.254  0.019  0.001  0.014  0.000  0.000  0.000  0.000  0.000  0.288
tot    0.509  0.038  0.001  0.028  0.000  0.000  0.000  0.000  0.000  0.576

band     2 # energy    1.91552976 # occ.  2.00000000
