<?xml version="1.0" encoding="ISO-8859-1"?>
<modeling>
 <generator>
  <i name="program" type="string">vasp </i>
  <i name="version" type="string">6.4.2  </i>
  <i name="subversion" type="string">20Jul23 (build Oct 18 2023 12:49:41) complex                          parallel </i>
  <i name="platform" type="string">LinuxGNU </i>
  <i name="date" type="string">2025 06 06 </i>
  <i name="time" type="string">09:50:22 </i>
 </generator>
 <incar>
  <i type="string" name="SYSTEM">fcc C</i>
  <i type="int" name="NSIM">     1</i>
  <i name="ENCUT">    900.00000000</i>
  <i type="int" name="ISMEAR">    -5</i>
  <i type="int" name="LORBIT">    11</i>
 </incar>
 <primitive_cell>
  <structure name="primitive_cell" >
   <crystal>
    <varray name="basis" >
     <v>       2.52631355       0.00000000       0.00000000 </v>
     <v>       1.26315677       2.18785171       0.00000000 </v>
     <v>       1.26315677       0.72928390       2.06272637 </v>
    </varray>
    <i name="volume">     11.40110000 </i>
    <varray name="rec_basis" >
     <v>       0.39583368      -0.22853468      -0.16159843 </v>
     <v>       0.00000000       0.45706937      -0.16159843 </v>
     <v>       0.00000000       0.00000000       0.48479528 </v>
    </varray>
   </crystal>
   <varray name="positions" >
    <v>       0.00000000       0.00000000       0.00000000 </v>
    <v>       0.25000000       0.25000000       0.25000000 </v>
   </varray>
  </structure>
  <varray name="primitive_index" >
   <v type="int" >        1 </v>
   <v type="int" >        2 </v>
  </varray>
 </primitive_cell>
 <kpoints>
  <generation param="Gamma">
   <v type="int" name="divisions">       8        8        8 </v>
   <v name="usershift">      0.00000000       0.00000000       0.00000000 </v>
   <v name="genvec1">      0.12500000       0.00000000       0.00000000 </v>
   <v name="genvec2">      0.00000000       0.12500000       0.00000000 </v>
   <v name="genvec3">      0.00000000       0.00000000       0.12500000 </v>
   <v name="shift">      0.00000000       0.00000000       0.00000000 </v>
  </generation>
  <varray name="kpointlist" >
   <v>       0.00000000       0.00000000       0.00000000 </v>
   <v>       0.12500000       0.00000000       0.00000000 </v>
   <v>       0.25000000       0.00000000       0.00000000 </v>
   <v>       0.37500000       0.00000000       0.00000000 </v>
   <v>       0.50000000       0.00000000       0.00000000 </v>
   <v>       0.12500000       0.12500000       0.00000000 </v>
   <v>       0.25000000       0.12500000       0.00000000 </v>
   <v>       0.37500000       0.12500000       0.00000000 </v>
   <v>       0.50000000       0.12500000       0.00000000 </v>
   <v>      -0.37500000       0.12500000       0.00000000 </v>
   <v>      -0.25000000       0.12500000       0.00000000 </v>
   <v>      -0.12500000       0.12500000       0.00000000 </v>
   <v>       0.25000000       0.25000000       0.00000000 </v>
   <v>       0.37500000       0.25000000       0.00000000 </v>
   <v>       0.50000000       0.25000000       0.00000000 </v>
   <v>      -0.37500000       0.25000000       0.00000000 </v>
   <v>      -0.25000000       0.25000000       0.00000000 </v>
   <v>       0.37500000       0.37500000       0.00000000 </v>
   <v>       0.50000000       0.37500000       0.00000000 </v>
   <v>      -0.37500000       0.37500000       0.00000000 </v>
   <v>       0.50000000       0.50000000       0.00000000 </v>
   <v>       0.37500000       0.25000000       0.12500000 </v>
   <v>       0.50000000       0.25000000       0.12500000 </v>
   <v>      -0.37500000       0.25000000       0.12500000 </v>
   <v>       0.50000000       0.37500000       0.12500000 </v>
   <v>      -0.37500000       0.37500000       0.12500000 </v>
   <v>      -0.25000000       0.37500000       0.12500000 </v>
   <v>      -0.37500000       0.50000000       0.12500000 </v>
   <v>      -0.25000000       0.50000000       0.25000000 </v>
  </varray>
  <varray name="weights" >
   <v>       0.00195312 </v>
   <v>       0.01562500 </v>
   <v>       0.01562500 </v>
   <v>       0.01562500 </v>
   <v>       0.00781250 </v>
   <v>       0.01171875 </v>
   <v>       0.04687500 </v>
   <v>       0.04687500 </v>
   <v>       0.04687500 </v>
   <v>       0.04687500 </v>
   <v>       0.04687500 </v>
   <v>       0.02343750 </v>
   <v>       0.01171875 </v>
   <v>       0.04687500 </v>
   <v>       0.04687500 </v>
   <v>       0.04687500 </v>
   <v>       0.02343750 </v>
   <v>       0.01171875 </v>
   <v>       0.04687500 </v>
   <v>       0.02343750 </v>
   <v>       0.00585938 </v>
   <v>       0.04687500 </v>
   <v>       0.09375000 </v>
   <v>       0.04687500 </v>
   <v>       0.04687500 </v>
   <v>       0.09375000 </v>
   <v>       0.04687500 </v>
   <v>       0.02343750 </v>
   <v>       0.01171875 </v>
  </varray>
  <varray name="tetrahedronlist"  type="int" >
   <v type="int" >       48        2        3        7       12 </v>
   <v type="int" >       48        7       11       12       22 </v>
   <v type="int" >       24       11       11       12       22 </v>
   <v type="int" >       48        3        7       11       12 </v>
   <v type="int" >       48       11       17       22       23 </v>
   <v type="int" >       48       10       11       17       23 </v>
   <v type="int" >       24       11       11       17       22 </v>
   <v type="int" >       48       10       16       23       24 </v>
   <v type="int" >       48        9       10       16       24 </v>
   <v type="int" >       48       10       16       17       23 </v>
   <v type="int" >       48        9       15       23       24 </v>
   <v type="int" >       48        8        9       15       23 </v>
   <v type="int" >       48        9       15       16       24 </v>
   <v type="int" >       48        8       14       22       23 </v>
   <v type="int" >       48        7        8       14       22 </v>
   <v type="int" >       48        8       14       15       23 </v>
   <v type="int" >       24        7        7       13       22 </v>
   <v type="int" >       24        6        7        7       13 </v>
   <v type="int" >       48        7       13       14       22 </v>
   <v type="int" >       24        6        7        7       12 </v>
   <v type="int" >       48        2        6        7       12 </v>
   <v type="int" >       48        7        8       11       22 </v>
   <v type="int" >       48        3        7        8       11 </v>
   <v type="int" >       48       14       22       23       25 </v>
   <v type="int" >       24       22       23       23       25 </v>
   <v type="int" >       24       17       22       23       23 </v>
   <v type="int" >       48        8       11       22       23 </v>
   <v type="int" >       48       23       25       26       27 </v>
   <v type="int" >       48       23       24       26       27 </v>
   <v type="int" >       48       16       23       24       27 </v>
   <v type="int" >       24       23       23       25       27 </v>
   <v type="int" >       24       17       23       23       27 </v>
   <v type="int" >       48       16       17       23       27 </v>
   <v type="int" >       48       24       26       26       27 </v>
   <v type="int" >       48       15       23       24       26 </v>
   <v type="int" >       48       16       24       26       27 </v>
   <v type="int" >       48       15       16       24       26 </v>
   <v type="int" >       48       15       23       25       26 </v>
   <v type="int" >       48       14       15       23       25 </v>
   <v type="int" >       24       14       14       22       25 </v>
   <v type="int" >       24       13       14       14       22 </v>
   <v type="int" >       24        7        7       12       22 </v>
   <v type="int" >       48       14       15       19       25 </v>
   <v type="int" >       48       19       25       26       28 </v>
   <v type="int" >       24       25       26       26       28 </v>
   <v type="int" >       24       25       26       26       27 </v>
   <v type="int" >       48       15       19       25       26 </v>
   <v type="int" >       48       26       26       28       29 </v>
   <v type="int" >       96       26       26       27       29 </v>
   <v type="int" >       48        8        9       10       23 </v>
   <v type="int" >       48        8       10       11       23 </v>
   <v type="int" >       24       19       19       20       28 </v>
   <v type="int" >       48       19       20       26       28 </v>
   <v type="int" >       48       15       19       20       26 </v>
   <v type="int" >       24       20       26       26       28 </v>
   <v type="int" >       48        9        9       10       24 </v>
   <v type="int" >       48        9       10       23       24 </v>
   <v type="int" >       24        2        2        6       12 </v>
   <v type="int" >       48        3        4        8       11 </v>
   <v type="int" >       48        4        8       10       11 </v>
   <v type="int" >       24       16       16       17       27 </v>
   <v type="int" >       48       16       20       26       27 </v>
   <v type="int" >       48       15       16       20       26 </v>
   <v type="int" >       24       16       16       20       27 </v>
   <v type="int" >       24       14       14       18       25 </v>
   <v type="int" >       24       13       14       14       18 </v>
   <v type="int" >       48       14       18       19       25 </v>
   <v type="int" >       48        4        8        9       10 </v>
   <v type="int" >       24       20       26       26       27 </v>
   <v type="int" >       24       19       19       25       28 </v>
   <v type="int" >       24       18       19       19       25 </v>
   <v type="int" >       48        4        5        9       10 </v>
   <v type="int" >       48        5        9        9       10 </v>
   <v type="int" >       48       19       19       21       28 </v>
   <v type="int" >       24       18       19       19       21 </v>
   <v type="int" >       24        1        2        2        6 </v>
  </varray>
  <i name="volumeweight">      0.00032552 </i>
 </kpoints>
 <parameters>
  <separator name="general" >
   <i type="string" name="SYSTEM">fcc C</i>
   <i type="logical" name="LCOMPAT"> F  </i>
  </separator>
  <separator name="electronic" >
   <i type="string" name="PREC">normal</i>
   <i name="ENMAX">    900.00000000</i>
   <i name="ENAUG">    644.87300000</i>
   <i name="EDIFF">      0.00010000</i>
   <i type="int" name="IALGO">    38</i>
   <i type="int" name="IWAVPR">    10</i>
   <i type="int" name="NBANDS">     8</i>
   <i type="int" name="NBANDSLOW">    -1</i>
   <i type="int" name="NBANDSHIGH">    -1</i>
   <i name="NELECT">      8.00000000</i>
   <i type="int" name="TURBO">     0</i>
   <i type="int" name="IRESTART">     0</i>
   <i type="int" name="NREBOOT">     0</i>
   <i type="int" name="NMIN">     0</i>
   <i name="EREF">      0.00000000</i>
   <separator name="electronic smearing" >
    <i type="int" name="ISMEAR">    -5</i>
    <i name="SIGMA">      0.20000000</i>
    <i name="KSPACING">      0.50000000</i>
    <i type="logical" name="KGAMMA"> T  </i>
    <i type="logical" name="KBLOWUP"> T  </i>
   </separator>
   <separator name="electronic projectors" >
    <i type="logical" name="LREAL"> F  </i>
    <v name="ROPT">      0.00000000</v>
    <i type="int" name="LMAXPAW">  -100</i>
    <i type="int" name="LMAXMIX">     2</i>
    <i type="logical" name="NLSPLINE"> F  </i>
   </separator>
   <separator name="electronic startup" >
    <i type="int" name="ISTART">     1</i>
    <i type="int" name="ICHARG">     0</i>
    <i type="int" name="INIWAV">     1</i>
   </separator>
   <separator name="electronic spin" >
    <i type="int" name="ISPIN">     1</i>
    <i type="logical" name="LNONCOLLINEAR"> F  </i>
    <v name="MAGMOM">      1.00000000      1.00000000</v>
    <i name="NUPDOWN">     -1.00000000</i>
    <i type="logical" name="LSORBIT"> F  </i>
    <v name="SAXIS">      0.00000000      0.00000000      1.00000000</v>
    <i type="logical" name="LSPIRAL"> F  </i>
    <v name="QSPIRAL">      0.00000000      0.00000000      0.00000000</v>
    <i type="logical" name="LZEROZ"> F  </i>
   </separator>
   <separator name="electronic exchange-correlation" >
    <i type="logical" name="LASPH"> F  </i>
    <i type="logical" name="LMETAGGA"> F  </i>
   </separator>
   <separator name="electronic convergence" >
    <i type="int" name="NELM">    60</i>
    <i type="int" name="NELMDL">     0</i>
    <i type="int" name="NELMIN">     2</i>
    <i name="ENINI">    900.00000000</i>
    <separator name="electronic convergence detail" >
     <i type="logical" name="LDIAG"> T  </i>
     <i type="logical" name="LSUBROT"> F  </i>
     <i name="WEIMIN">      0.00000000</i>
     <i name="EBREAK">      0.00000313</i>
     <i name="DEPER">      0.30000000</i>
     <i type="int" name="NRMM">     4</i>
     <i name="TIME">      0.40000000</i>
    </separator>
   </separator>
   <separator name="electronic mixer" >
    <i name="AMIX">      0.40000000</i>
    <i name="BMIX">      1.00000000</i>
    <i name="AMIN">      0.10000000</i>
    <i name="AMIX_MAG">      1.60000000</i>
    <i name="BMIX_MAG">      1.00000000</i>
    <separator name="electronic mixer details" >
     <i type="int" name="IMIX">     4</i>
     <i type="logical" name="MIXFIRST"> F  </i>
     <i type="int" name="MAXMIX">   -45</i>
     <i name="WC">    100.00000000</i>
     <i type="int" name="INIMIX">     1</i>
     <i type="int" name="MIXPRE">     1</i>
     <i type="int" name="MREMOVE">     5</i>
    </separator>
   </separator>
   <separator name="electronic dipolcorrection" >
    <i type="logical" name="LDIPOL"> F  </i>
    <i type="logical" name="LMONO"> F  </i>
    <i type="int" name="IDIPOL">     0</i>
    <i name="EPSILON">      1.00000000</i>
    <v name="DIPOL">   -100.00000000   -100.00000000   -100.00000000</v>
    <i name="EFIELD">      0.00000000</i>
   </separator>
  </separator>
  <separator name="grids" >
   <i type="int" name="NGX">    20</i>
   <i type="int" name="NGY">    20</i>
   <i type="int" name="NGZ">    20</i>
   <i type="int" name="NGXF">    40</i>
   <i type="int" name="NGYF">    40</i>
   <i type="int" name="NGZF">    40</i>
   <i type="logical" name="ADDGRID"> F  </i>
  </separator>
  <separator name="ionic" >
   <i type="int" name="NSW">     0</i>
   <i type="int" name="IBRION">    -1</i>
   <i type="int" name="MDALGO">     0</i>
   <i type="int" name="ISIF">     2</i>
   <i name="PSTRESS">      0.00000000</i>
   <i name="EDIFFG">      0.00100000</i>
   <i type="int" name="NFREE">     0</i>
   <i name="POTIM">      0.50000000</i>
   <i name="SMASS">     -3.00000000</i>
   <i name="SCALEE">      1.00000000</i>
  </separator>
  <separator name="ionic md" >
   <i name="TEBEG">      0.00010000</i>
   <i name="TEEND">      0.00010000</i>
   <i type="int" name="NBLOCK">     1</i>
   <i type="int" name="KBLOCK">     1</i>
   <i type="int" name="NPACO">   256</i>
   <i name="APACO">     10.00000000</i>
  </separator>
  <separator name="symmetry" >
   <i type="int" name="ISYM">     2</i>
   <i name="SYMPREC">      0.00001000</i>
  </separator>
  <separator name="dos" >
   <i type="int" name="LORBIT">    11</i>
   <v name="RWIGS">     -1.00000000</v>
   <i type="int" name="NEDOS">   301</i>
   <i name="EMIN">     10.00000000</i>
   <i name="EMAX">    -10.00000000</i>
   <i name="EFERMI">      0.00000000</i>
  </separator>
  <separator name="writing" >
   <i type="int" name="NWRITE">     2</i>
   <i type="logical" name="LWAVE"> T  </i>
   <i type="logical" name="LDOWNSAMPLE"> F  </i>
   <i type="logical" name="LCHARG"> T  </i>
   <i type="logical" name="LPARD"> F  </i>
   <i type="logical" name="LVTOT"> F  </i>
   <i type="logical" name="LVHAR"> F  </i>
   <i type="logical" name="LELF"> F  </i>
   <i type="logical" name="LOPTICS"> F  </i>
   <v name="STM">      0.00000000      0.00000000      0.00000000      0.00000000      0.00000000      0.00000000      0.00000000</v>
  </separator>
  <separator name="performance" >
   <i type="int" name="NPAR">     4</i>
   <i type="int" name="NSIM">     1</i>
   <i type="int" name="NBLK">    -1</i>
   <i type="logical" name="LPLANE"> T  </i>
   <i type="logical" name="LSCALAPACK"> T  </i>
   <i type="logical" name="LSCAAWARE"> F  </i>
   <i type="logical" name="LSCALU"> F  </i>
   <i type="logical" name="LASYNC"> F  </i>
   <i type="logical" name="LORBITALREAL"> F  </i>
  </separator>
  <separator name="miscellaneous" >
   <i type="int" name="IDIOT">     3</i>
   <i type="int" name="PHON_NSTRUCT">    -1</i>
   <i type="logical" name="LMUSIC"> F  </i>
   <v name="POMASS">     12.01100000</v>
   <v name="DARWINR">      0.00000000</v>
   <v name="DARWINV">      1.00000000</v>
   <i type="logical" name="LCORR"> T  </i>
  </separator>
  <i type="logical" name="GGA_COMPAT"> T  </i>
  <i type="logical" name="LBERRY"> F  </i>
  <i type="int" name="ICORELEVEL">     0</i>
  <i type="logical" name="LDAU"> F  </i>
  <i type="int" name="I_CONSTRAINED_M">     0</i>
  <separator name="electronic exchange-correlation" >
   <i type="string" name="GGA">--</i>
   <i type="int" name="VOSKOWN">     0</i>
   <i type="logical" name="LHFCALC"> F  </i>
   <i type="string" name="PRECFOCK"></i>
   <i type="logical" name="LSYMGRAD"> F  </i>
   <i type="logical" name="LHFONE"> F  </i>
   <i type="logical" name="LRHFCALC"> F  </i>
   <i type="logical" name="LTHOMAS"> F  </i>
   <i type="logical" name="LMODELHF"> F  </i>
   <i type="logical" name="LFOCKACE"> F  </i>
   <i name="ENCUT4O">     -1.00000000</i>
   <i type="int" name="EXXOEP">     0</i>
   <i type="int" name="FOURORBIT">     0</i>
   <i name="AEXX">      0.00000000</i>
   <i name="HFALPHA">      0.00000000</i>
   <i name="MCALPHA">      0.00000000</i>
   <i name="ALDAX">      1.00000000</i>
   <i name="AGGAX">      1.00000000</i>
   <i name="ALDAC">      1.00000000</i>
   <i name="AGGAC">      1.00000000</i>
   <i type="int" name="NKREDX">     1</i>
   <i type="int" name="NKREDY">     1</i>
   <i type="int" name="NKREDZ">     1</i>
   <i type="logical" name="SHIFTRED"> F  </i>
   <i type="logical" name="ODDONLY"> F  </i>
   <i type="logical" name="EVENONLY"> F  </i>
   <i type="int" name="LMAXFOCK">     0</i>
   <i type="int" name="NMAXFOCKAE">     0</i>
   <i type="logical" name="LFOCKAEDFT"> F  </i>
   <i name="HFSCREEN">      0.00000000</i>
   <i name="HFSCREENC">      0.00000000</i>
   <i type="int" name="NBANDSGWLOW">     0</i>
  </separator>
  <separator name="vdW DFT" >
   <i type="logical" name="LUSE_VDW"> F  </i>
   <i type="int" name="IVDW_NL">     1</i>
   <i type="logical" name="LSPIN_VDW"> F  </i>
   <i name="Zab_VDW">     -0.84910000</i>
   <i name="PARAM1">      0.12340000</i>
   <i name="PARAM2">      1.00000000</i>
   <i name="PARAM3">      0.00000000</i>
  </separator>
  <separator name="model GW" >
   <i type="int" name="MODEL_GW">     0</i>
   <i name="MODEL_EPS0">      3.42033000</i>
   <i name="MODEL_ALPHA">      1.00000000</i>
  </separator>
  <separator name="linear response parameters" >
   <i type="logical" name="LEPSILON"> F  </i>
   <i type="logical" name="LRPA"> F  </i>
   <i type="logical" name="LNABLA"> F  </i>
   <i type="logical" name="LVEL"> F  </i>
   <i name="CSHIFT">      0.10000000</i>
   <i name="OMEGAMAX">     -1.00000000</i>
   <i name="DEG_THRESHOLD">      0.00200000</i>
   <i name="RTIME">     -0.10000000</i>
   <i name="WPLASMAI">      0.00000000</i>
   <v name="DFIELD">      0.00000000      0.00000000      0.00000000</v>
   <v name="WPLASMA">      0.00000000      0.00000000      0.00000000      0.00000000      0.00000000      0.00000000      0.00000000      0.00000000      0.00000000</v>
  </separator>
  <separator name="orbital magnetization" >
   <i type="logical" name="NUCIND"> F  </i>
   <v name="MAGPOS">      0.00000000      0.00000000      0.00000000</v>
   <i type="logical" name="LNICSALL"> T  </i>
   <i type="logical" name="ORBITALMAG"> F  </i>
   <i type="logical" name="LMAGBLOCH"> F  </i>
   <i type="logical" name="LCHIMAG"> F  </i>
   <i type="logical" name="LGAUGE"> T  </i>
   <i type="int" name="MAGATOM">     0</i>
   <v name="MAGDIPOL">      0.00000000      0.00000000      0.00000000</v>
   <v name="AVECCONST">      0.00000000      0.00000000      0.00000000</v>
  </separator>
  <separator name="response functions" >
   <i type="logical" name="LALL_IN_ONE"> F  </i>
   <i type="int" name="IALL_IN_ONE">    -1</i>
   <i type="int" name="NBANDS_WAVE">    -1</i>
   <i type="logical" name="LFINITE_TEMPERATURE"> F  </i>
   <i type="logical" name="LADDER"> F  </i>
   <i type="logical" name="LRPAFORCE"> F  </i>
   <i type="logical" name="LFXC"> F  </i>
   <i type="logical" name="LHARTREE"> T  </i>
   <i type="int" name="IBSE">     0</i>
   <v type="int" name="KPOINT">    -1     0     0     0</v>
   <i type="logical" name="LTCTC"> F  </i>
   <i type="logical" name="LTCTE"> F  </i>
   <i type="logical" name="LTETE"> F  </i>
   <i type="logical" name="LTRIPLET"> F  </i>
   <i type="logical" name="LFXCEPS"> F  </i>
   <i type="logical" name="LFXHEG"> F  </i>
   <i type="int" name="NATURALO">     2</i>
   <i type="logical" name="LHOLEGF"> F  </i>
   <i type="logical" name="L2ORDER"> F  </i>
   <i type="logical" name="LDMP1"> F  </i>
   <i type="logical" name="LMP2LT"> F  </i>
   <i type="logical" name="LSMP2LT"> F  </i>
   <i type="logical" name="LGWLF"> F  </i>
   <i name="ENCUTGW">     -1.60000002</i>
   <i name="ENCUTGWSOFT">     -1.60000002</i>
   <i name="ENCUTLF">     -1.00000000</i>
   <i type="logical" name="LESF_SPLINES"> F  </i>
   <i type="int" name="LMAXMP2">    -1</i>
   <i name="SCISSOR">      0.00000000</i>
   <i type="int" name="NOMEGA">     0</i>
   <i type="int" name="NOMEGAR">     0</i>
   <i type="int" name="NBANDSGW">    -1</i>
   <i type="int" name="NBANDSO">    -1</i>
   <i type="int" name="NBANDSV">    -1</i>
   <i type="int" name="NELMGW">     1</i>
   <i type="int" name="NELMHF">     1</i>
   <i type="int" name="DIM">     3</i>
   <i type="int" name="IESPILON">     4</i>
   <i type="int" name="ANTIRES">     0</i>
   <i name="OMEGAMAX">    -30.00000000</i>
   <i name="OMEGAMIN">    -30.00000000</i>
   <i name="OMEGATL">   -200.00000000</i>
   <i type="int" name="OMEGAGRID">     0</i>
   <i name="CSHIFT">     -0.10000000</i>
   <i type="logical" name="LSELFENERGY"> F  </i>
   <i type="logical" name="LSPECTRAL"> F  </i>
   <i type="logical" name="LSPECTRALGW"> F  </i>
   <i type="logical" name="LSINGLES"> F  </i>
   <i type="logical" name="LFERMIGW"> F  </i>
   <i type="logical" name="ODDONLYGW"> F  </i>
   <i type="logical" name="EVENONLYGW"> F  </i>
   <i type="int" name="NKREDLFX">     1</i>
   <i type="int" name="NKREDLFY">     1</i>
   <i type="int" name="NKREDLFZ">     1</i>
   <i type="int" name="MAXMEM">  2800</i>
   <i type="int" name="TELESCOPE">     0</i>
   <i type="int" name="NTAUPAR">    -1</i>
   <i type="int" name="NOMEGAPAR">    -1</i>
   <i name="DAMP_NEWTON">      0.80000001</i>
   <i name="LAMBDA">      1.00000000</i>
  </separator>
  <separator name="External order field" >
   <i name="OFIELD_KAPPA">      0.00000000</i>
   <v name="OFIELD_K">      0.00000000      0.00000000      0.00000000</v>
   <i name="OFIELD_Q6_NEAR">      0.00000000</i>
   <i name="OFIELD_Q6_FAR">      0.00000000</i>
   <i name="OFIELD_A">      0.00000000</i>
  </separator>
  <separator name="optional k-points parameters" >
   <i type="int" name="KPOINTS_OPT_MODE">     1</i>
   <i type="logical" name="LKPOINTS_OPT"> T  </i>
  </separator>
 </parameters>
 <atominfo>
  <atoms>       2 </atoms>
  <types>       1 </types>
  <array name="atoms" >
   <dimension dim="1">ion</dimension>
   <field type="string">element</field>
   <field type="int">atomtype</field>
   <set>
    <rc><c>C </c><c>   1</c></rc>
    <rc><c>C </c><c>   1</c></rc>
   </set>
  </array>
  <array name="atomtypes" >
   <dimension dim="1">type</dimension>
   <field type="int">atomspertype</field>
   <field type="string">element</field>
   <field>mass</field>
   <field>valence</field>
   <field type="string">pseudopotential</field>
   <set>
    <rc><c>   2</c><c>C </c><c>     12.01100000</c><c>      4.00000000</c><c>  PAW_PBE C 08Apr2002                   </c></rc>
   </set>
  </array>
 </atominfo>
 <structure name="initialpos" >
  <crystal>
   <varray name="basis" >
    <v>       2.52631355       0.00000000       0.00000000 </v>
    <v>       1.26315677       2.18785171       0.00000000 </v>
    <v>       1.26315677       0.72928390       2.06272637 </v>
   </varray>
   <i name="volume">     11.40110000 </i>
   <varray name="rec_basis" >
    <v>       0.39583368      -0.22853468      -0.16159843 </v>
    <v>       0.00000000       0.45706937      -0.16159843 </v>
    <v>       0.00000000       0.00000000       0.48479528 </v>
   </varray>
  </crystal>
  <varray name="positions" >
   <v>       0.00000000       0.00000000       0.00000000 </v>
   <v>       0.25000000       0.25000000       0.25000000 </v>
  </varray>
 </structure>
 <calculation>
  <scstep>
   <time name="dav">    0.03    0.03</time>
   <time name="total">    0.04    0.04</time>
   <energy>
    <i name="alphaZ">     28.82062818 </i>
    <i name="ewald">   -347.37975617 </i>
    <i name="hartreedc">    -26.46977170 </i>
    <i name="XCdc">     28.17354760 </i>
    <i name="pawpsdc">    758.62674445 </i>
    <i name="pawaedc">   -759.95449952 </i>
    <i name="eentropy">      0.00000000 </i>
    <i name="bandstr">      5.67299401 </i>
    <i name="atom">    294.30992362 </i>
    <i name="e_fr_energy">    -18.20018952 </i>
    <i name="e_wo_entrp">    -18.20018952 </i>
    <i name="e_0_energy">    -18.20018952 </i>
   </energy>
  </scstep>
  <scstep>
   <time name="dav">    0.02    0.02</time>
   <time name="total">    0.03    0.03</time>
   <energy>
    <i name="alphaZ">     28.82062818 </i>
    <i name="ewald">   -347.37975617 </i>
    <i name="hartreedc">    -26.47296291 </i>
    <i name="XCdc">     28.17382346 </i>
    <i name="pawpsdc">    758.45363128 </i>
    <i name="pawaedc">   -759.78152197 </i>
    <i name="eentropy">      0.00000000 </i>
    <i name="bandstr">      5.67604515 </i>
    <i name="atom">    294.30992362 </i>
    <i name="e_fr_energy">    -18.20018935 </i>
    <i name="e_wo_entrp">    -18.20018935 </i>
    <i name="e_0_energy">    -18.20018935 </i>
   </energy>
  </scstep>
  <structure>
   <crystal>
    <varray name="basis" >
     <v>       2.52631355       0.00000000       0.00000000 </v>
     <v>       1.26315677       2.18785171       0.00000000 </v>
     <v>       1.26315677       0.72928390       2.06272637 </v>
    </varray>
    <i name="volume">     11.40110000 </i>
    <varray name="rec_basis" >
     <v>       0.39583368      -0.22853468      -0.16159843 </v>
     <v>       0.00000000       0.45706937      -0.16159843 </v>
     <v>       0.00000000       0.00000000       0.48479528 </v>
    </varray>
   </crystal>
   <varray name="positions" >
    <v>       0.00000000       0.00000000       0.00000000 </v>
    <v>       0.25000000       0.25000000       0.25000000 </v>
   </varray>
  </structure>
  <varray name="forces" >
   <v>      -0.00000000      -0.00000000      -0.00000000 </v>
   <v>       0.00000000       0.00000000       0.00000000 </v>
  </varray>
  <varray name="stress" >
   <v>      -1.48660182      -0.00000000      -0.00000000 </v>
   <v>       0.00000000      -1.48660182      -0.00000000 </v>
   <v>      -0.00000000      -0.00000000      -1.48660182 </v>
  </varray>
  <energy>
   <i name="e_fr_energy">    -18.20018935 </i>
   <i name="e_wo_entrp">    -18.20018935 </i>
   <i name="e_0_energy">    -18.20018935 </i>
  </energy>
  <dos comment="kpoints_opt">
   <i name="efermi">     11.71151816 </i>
   <total>
    <array>
     <dimension dim="1">gridpoints</dimension>
     <dimension dim="2">spin</dimension>
     <field>energy</field>
     <field>total</field>
     <field>integrated</field>
     <set>
      <set comment="spin 1">
       <r>   -13.7544     0.0000     0.0000 </r>
       <r>   -13.6140     0.0000     0.0000 </r>
       <r>   -13.4736    -0.0000    -0.0000 </r>
       <r>   -13.3331    -0.0000    -0.0000 </r>
       <r>   -13.1927    -0.0000    -0.0000 </r>
       <r>   -13.0522    -0.0000    -0.0000 </r>
       <r>   -12.9118    -0.0000    -0.0000 </r>
       <r>   -12.7713    -0.0000    -0.0000 </r>
       <r>   -12.6309    -0.0000    -0.0000 </r>
       <r>   -12.4905    -0.0000    -0.0000 </r>
       <r>   -12.3500    -0.0001    -0.0000 </r>
       <r>   -12.2096    -0.0024    -0.0003 </r>
       <r>   -12.0691    -0.0221    -0.0034 </r>
       <r>   -11.9287    -0.0150    -0.0056 </r>
       <r>   -11.7882     0.3468     0.0432 </r>
       <r>   -11.6478     0.8548     0.1632 </r>
       <r>   -11.5074     0.7401     0.2671 </r>
       <r>   -11.3669     0.4596     0.3317 </r>
       <r>   -11.2265     0.3620     0.3825 </r>
       <r>   -11.0860     0.3207     0.4276 </r>
       <r>   -10.9456     0.2900     0.4683 </r>
       <r>   -10.8051     0.2664     0.5057 </r>
       <r>   -10.6647     0.2477     0.5405 </r>
       <r>   -10.5243     0.2324     0.5732 </r>
       <r>   -10.3838     0.2199     0.6040 </r>
       <r>   -10.2434     0.2094     0.6335 </r>
       <r>   -10.1029     0.1994     0.6615 </r>
       <r>    -9.9625     0.1930     0.6886 </r>
       <r>    -9.8220     0.1833     0.7143 </r>
       <r>    -9.6816     0.1806     0.7397 </r>
       <r>    -9.5412     0.1703     0.7636 </r>
       <r>    -9.4007     0.1713     0.7876 </r>
       <r>    -9.2603     0.1585     0.8099 </r>
       <r>    -9.1198     0.1652     0.8331 </r>
       <r>    -8.9794     0.1472     0.8538 </r>
       <r>    -8.8389     0.1614     0.8765 </r>
       <r>    -8.6985     0.1375     0.8958 </r>
       <r>    -8.5581     0.1564     0.9177 </r>
       <r>    -8.4176     0.1339     0.9365 </r>
       <r>    -8.2772     0.1444     0.9568 </r>
       <r>    -8.1367     0.1404     0.9765 </r>
       <r>    -7.9963     0.1260     0.9942 </r>
       <r>    -7.8558     0.1488     1.0151 </r>
       <r>    -7.7154     0.1169     1.0316 </r>
       <r>    -7.5750     0.1395     1.0511 </r>
       <r>    -7.4345     0.1312     1.0696 </r>
       <r>    -7.2941     0.1147     1.0857 </r>
       <r>    -7.1536     0.1459     1.1062 </r>
       <r>    -7.0132     0.1114     1.1218 </r>
       <r>    -6.8727     0.1290     1.1399 </r>
       <r>    -6.7323     0.1367     1.1591 </r>
       <r>    -6.5919     0.1105     1.1747 </r>
       <r>    -6.4514     0.1393     1.1942 </r>
       <r>    -6.3110     0.1366     1.2134 </r>
       <r>    -6.1705     0.1378     1.2328 </r>
       <r>    -6.0301     0.2124     1.2626 </r>
       <r>    -5.8896     0.1531     1.2841 </r>
       <r>    -5.7492     0.0683     1.2937 </r>
       <r>    -5.6088     0.0877     1.3060 </r>
       <r>    -5.4683     0.0572     1.3140 </r>
       <r>    -5.3279     0.0587     1.3223 </r>
       <r>    -5.1874     0.0966     1.3358 </r>
       <r>    -5.0470     0.0506     1.3429 </r>
       <r>    -4.9065     0.0613     1.3515 </r>
       <r>    -4.7661     0.1011     1.3657 </r>
       <r>    -4.6257     0.0439     1.3719 </r>
       <r>    -4.4852     0.0641     1.3809 </r>
       <r>    -4.3448     0.0827     1.3925 </r>
       <r>    -4.2043     0.0299     1.3967 </r>
       <r>    -4.0639     0.3763     1.4496 </r>
       <r>    -3.9234     0.8762     1.5726 </r>
       <r>    -3.7830     0.8039     1.6855 </r>
       <r>    -3.6426     0.6452     1.7761 </r>
       <r>    -3.5021     0.6402     1.8661 </r>
       <r>    -3.3617     0.5583     1.9445 </r>
       <r>    -3.2212     0.4124     2.0024 </r>
       <r>    -3.0808     0.3618     2.0532 </r>
       <r>    -2.9403     0.2888     2.0938 </r>
       <r>    -2.7999     0.1796     2.1190 </r>
       <r>    -2.6595     0.1708     2.1430 </r>
       <r>    -2.5190     0.1854     2.1690 </r>
       <r>    -2.3786     0.1671     2.1925 </r>
       <r>    -2.2381     0.1317     2.2110 </r>
       <r>    -2.0977     0.2486     2.2459 </r>
       <r>    -1.9572     0.4118     2.3037 </r>
       <r>    -1.8168     0.4088     2.3611 </r>
       <r>    -1.6764     0.4292     2.4214 </r>
       <r>    -1.5359     0.4563     2.4855 </r>
       <r>    -1.3955     0.3862     2.5397 </r>
       <r>    -1.2550     0.4429     2.6019 </r>
       <r>    -1.1146     0.6337     2.6909 </r>
       <r>    -0.9741     0.5254     2.7647 </r>
       <r>    -0.8337     0.1928     2.7918 </r>
       <r>    -0.6933     0.1234     2.8091 </r>
       <r>    -0.5528     0.1217     2.8262 </r>
       <r>    -0.4124     0.0771     2.8371 </r>
       <r>    -0.2719     0.1110     2.8526 </r>
       <r>    -0.1315     0.1280     2.8706 </r>
       <r>     0.0090     0.0682     2.8802 </r>
       <r>     0.1494     0.1390     2.8997 </r>
       <r>     0.2898     0.5939     2.9831 </r>
       <r>     0.4303     0.8233     3.0988 </r>
       <r>     0.5707     0.5286     3.1730 </r>
       <r>     0.7112     0.3215     3.2181 </r>
       <r>     0.8516     0.3032     3.2607 </r>
       <r>     0.9921     0.2775     3.2997 </r>
       <r>     1.1325     0.2550     3.3355 </r>
       <r>     1.2729     0.2742     3.3740 </r>
       <r>     1.4134     0.2464     3.4086 </r>
       <r>     1.5538     0.2362     3.4418 </r>
       <r>     1.6943     0.2542     3.4775 </r>
       <r>     1.8347     0.2227     3.5088 </r>
       <r>     1.9752     0.2417     3.5427 </r>
       <r>     2.1156     0.2236     3.5741 </r>
       <r>     2.2560     0.2062     3.6031 </r>
       <r>     2.3965     0.3914     3.6581 </r>
       <r>     2.5369     0.6087     3.7436 </r>
       <r>     2.6774     0.6325     3.8324 </r>
       <r>     2.8178     0.5403     3.9083 </r>
       <r>     2.9583     0.4725     3.9746 </r>
       <r>     3.0987     0.4892     4.0433 </r>
       <r>     3.2391     0.6573     4.1357 </r>
       <r>     3.3796     1.0646     4.2852 </r>
       <r>     3.5200     1.0802     4.4369 </r>
       <r>     3.6605     0.6954     4.5345 </r>
       <r>     3.8009     0.4989     4.6046 </r>
       <r>     3.9414     0.4075     4.6618 </r>
       <r>     4.0818     0.4479     4.7247 </r>
       <r>     4.2222     0.5500     4.8020 </r>
       <r>     4.3627     0.6045     4.8869 </r>
       <r>     4.5031     0.5213     4.9601 </r>
       <r>     4.6436     0.4014     5.0165 </r>
       <r>     4.7840     0.3248     5.0621 </r>
       <r>     4.9245     0.3264     5.1079 </r>
       <r>     5.0649     0.3470     5.1567 </r>
       <r>     5.2053     0.3293     5.2029 </r>
       <r>     5.3458     0.3141     5.2470 </r>
       <r>     5.4862     0.3063     5.2900 </r>
       <r>     5.6267     0.3209     5.3351 </r>
       <r>     5.7671     0.3136     5.3791 </r>
       <r>     5.9076     0.2871     5.4195 </r>
       <r>     6.0480     0.3031     5.4620 </r>
       <r>     6.1884     0.3154     5.5063 </r>
       <r>     6.3289     0.2825     5.5460 </r>
       <r>     6.4693     0.2867     5.5863 </r>
       <r>     6.6098     0.2754     5.6249 </r>
       <r>     6.7502     0.3559     5.6749 </r>
       <r>     6.8907     0.8392     5.7928 </r>
       <r>     7.0311     1.1086     5.9485 </r>
       <r>     7.1715     0.8618     6.0695 </r>
       <r>     7.3120     0.6850     6.1657 </r>
       <r>     7.4524     0.6219     6.2530 </r>
       <r>     7.5929     0.6096     6.3387 </r>
       <r>     7.7333     0.5710     6.4189 </r>
       <r>     7.8738     0.5805     6.5004 </r>
       <r>     8.0142     0.5416     6.5764 </r>
       <r>     8.1546     0.5731     6.6569 </r>
       <r>     8.2951     0.5497     6.7341 </r>
       <r>     8.4355     0.5591     6.8127 </r>
       <r>     8.5760     0.5798     6.8941 </r>
       <r>     8.7164     0.5825     6.9759 </r>
       <r>     8.8569     0.6090     7.0614 </r>
       <r>     8.9973     0.6460     7.1521 </r>
       <r>     9.1377     0.6832     7.2481 </r>
       <r>     9.2782     0.7547     7.3541 </r>
       <r>     9.4186     0.9400     7.4861 </r>
       <r>     9.5591     1.5052     7.6975 </r>
       <r>     9.6995     1.6473     7.9288 </r>
       <r>     9.8400     0.5954     8.0125 </r>
       <r>     9.9804    -0.0464     8.0059 </r>
       <r>    10.1208    -0.0386     8.0005 </r>
       <r>    10.2613    -0.0037     8.0000 </r>
       <r>    10.4017    -0.0001     8.0000 </r>
       <r>    10.5422    -0.0000     8.0000 </r>
       <r>    10.6826    -0.0000     8.0000 </r>
       <r>    10.8231    -0.0000     8.0000 </r>
       <r>    10.9635    -0.0000     8.0000 </r>
       <r>    11.1039     0.0000     8.0000 </r>
       <r>    11.2444     0.0000     8.0000 </r>
       <r>    11.3848     0.0000     8.0000 </r>
       <r>    11.5253     0.0000     8.0000 </r>
       <r>    11.6657     0.0000     8.0000 </r>
       <r>    11.8062     0.0000     8.0000 </r>
       <r>    11.9466     0.0000     8.0000 </r>
       <r>    12.0870    -0.0000     8.0000 </r>
       <r>    12.2275    -0.0000     8.0000 </r>
       <r>    12.3679    -0.0000     8.0000 </r>
       <r>    12.5084    -0.0000     8.0000 </r>
       <r>    12.6488    -0.0000     8.0000 </r>
       <r>    12.7893    -0.0000     8.0000 </r>
       <r>    12.9297    -0.0000     8.0000 </r>
       <r>    13.0701    -0.0000     8.0000 </r>
       <r>    13.2106    -0.0001     8.0000 </r>
       <r>    13.3510    -0.0028     7.9996 </r>
       <r>    13.4915    -0.0194     7.9969 </r>
       <r>    13.6319     0.0124     7.9986 </r>
       <r>    13.7724     0.3145     8.0428 </r>
       <r>    13.9128     0.6010     8.1272 </r>
       <r>    14.0532     0.4717     8.1934 </r>
       <r>    14.1937     0.3139     8.2375 </r>
       <r>    14.3341     0.4266     8.2974 </r>
       <r>    14.4746     0.6772     8.3925 </r>
       <r>    14.6150     0.6085     8.4780 </r>
       <r>    14.7555     0.4397     8.5397 </r>
       <r>    14.8959     0.3676     8.5914 </r>
       <r>    15.0363     0.3786     8.6445 </r>
       <r>    15.1768     0.9930     8.7840 </r>
       <r>    15.3172     1.9197     9.0536 </r>
       <r>    15.4577     1.7031     9.2928 </r>
       <r>    15.5981     1.1399     9.4529 </r>
       <r>    15.7386     0.9310     9.5836 </r>
       <r>    15.8790     0.8833     9.7077 </r>
       <r>    16.0194     0.8021     9.8203 </r>
       <r>    16.1599     0.8004     9.9327 </r>
       <r>    16.3003     0.7476    10.0377 </r>
       <r>    16.4408     0.7299    10.1403 </r>
       <r>    16.5812     0.7555    10.2464 </r>
       <r>    16.7217     0.6788    10.3417 </r>
       <r>    16.8621     0.7459    10.4465 </r>
       <r>    17.0025     0.7292    10.5489 </r>
       <r>    17.1430     0.6853    10.6451 </r>
       <r>    17.2834     0.8033    10.7579 </r>
       <r>    17.4239     0.7511    10.8634 </r>
       <r>    17.5643     0.7851    10.9737 </r>
       <r>    17.7048     0.9152    11.1022 </r>
       <r>    17.8452     0.9790    11.2397 </r>
       <r>    17.9856     1.5033    11.4508 </r>
       <r>    18.1261     2.0817    11.7432 </r>
       <r>    18.2665     1.5497    11.9608 </r>
       <r>    18.4070     0.9508    12.0943 </r>
       <r>    18.5474     0.6721    12.1887 </r>
       <r>    18.6879     0.3390    12.2364 </r>
       <r>    18.8283     0.1906    12.2631 </r>
       <r>    18.9687     0.3347    12.3101 </r>
       <r>    19.1092     0.3340    12.3571 </r>
       <r>    19.2496     0.1924    12.3841 </r>
       <r>    19.3901     0.3713    12.4362 </r>
       <r>    19.5305     0.3946    12.4916 </r>
       <r>    19.6710     0.2346    12.5246 </r>
       <r>    19.8114     0.2614    12.5613 </r>
       <r>    19.9518     0.2472    12.5960 </r>
       <r>    20.0923     0.1458    12.6165 </r>
       <r>    20.2327     0.2104    12.6460 </r>
       <r>    20.3732     0.3492    12.6951 </r>
       <r>    20.5136     0.2965    12.7367 </r>
       <r>    20.6541     0.2154    12.7670 </r>
       <r>    20.7945     0.2895    12.8076 </r>
       <r>    20.9349     0.2912    12.8485 </r>
       <r>    21.0754     0.2148    12.8787 </r>
       <r>    21.2158     0.3343    12.9256 </r>
       <r>    21.3563     0.3522    12.9751 </r>
       <r>    21.4967     0.2592    13.0115 </r>
       <r>    21.6372     0.4281    13.0716 </r>
       <r>    21.7776     0.5097    13.1432 </r>
       <r>    21.9180     0.3510    13.1925 </r>
       <r>    22.0585     0.3861    13.2467 </r>
       <r>    22.1989     0.3208    13.2918 </r>
       <r>    22.3394     0.1569    13.3138 </r>
       <r>    22.4798     0.3009    13.3561 </r>
       <r>    22.6203     0.4420    13.4182 </r>
       <r>    22.7607     0.5291    13.4925 </r>
       <r>    22.9011     1.1828    13.6586 </r>
       <r>    23.0416     1.4713    13.8652 </r>
       <r>    23.1820     1.0972    14.0193 </r>
       <r>    23.3225     1.3015    14.2021 </r>
       <r>    23.4629     1.1659    14.3659 </r>
       <r>    23.6034     0.6649    14.4593 </r>
       <r>    23.7438     0.6666    14.5529 </r>
       <r>    23.8842     0.7134    14.6531 </r>
       <r>    24.0247     0.5414    14.7291 </r>
       <r>    24.1651     0.4981    14.7991 </r>
       <r>    24.3056     0.4513    14.8624 </r>
       <r>    24.4460     0.4101    14.9200 </r>
       <r>    24.5865     0.4930    14.9893 </r>
       <r>    24.7269     0.4708    15.0554 </r>
       <r>    24.8673     0.5098    15.1270 </r>
       <r>    25.0078     0.5922    15.2102 </r>
       <r>    25.1482     0.7172    15.3109 </r>
       <r>    25.2887     0.8476    15.4299 </r>
       <r>    25.4291     0.5525    15.5075 </r>
       <r>    25.5696     0.2920    15.5485 </r>
       <r>    25.7100     0.2664    15.5859 </r>
       <r>    25.8504     0.3151    15.6302 </r>
       <r>    25.9909     0.3512    15.6795 </r>
       <r>    26.1313     0.4386    15.7411 </r>
       <r>    26.2718     0.7029    15.8398 </r>
       <r>    26.4122     0.8297    15.9564 </r>
       <r>    26.5527     0.3475    16.0052 </r>
       <r>    26.6931    -0.0123    16.0034 </r>
       <r>    26.8335    -0.0221    16.0004 </r>
       <r>    26.9740    -0.0024    16.0000 </r>
       <r>    27.1144    -0.0001    16.0000 </r>
       <r>    27.2549    -0.0000    16.0000 </r>
       <r>    27.3953    -0.0000    16.0000 </r>
       <r>    27.5358    -0.0000    16.0000 </r>
       <r>    27.6762    -0.0000    16.0000 </r>
       <r>    27.8166     0.0000    16.0000 </r>
       <r>    27.9571     0.0000    16.0000 </r>
       <r>    28.0975     0.0000    16.0000 </r>
       <r>    28.2380     0.0000    16.0000 </r>
       <r>    28.3784     0.0000    16.0000 </r>
      </set>
     </set>
    </array>
   </total>
  </dos>
  <eigenvalues_kpoints_opt comment="kpoints_opt">
   <kpoints>
    <varray name="kpointlist" >
     <v>       0.50000000       0.50000000       0.50000000 </v>
     <v>       0.48529412       0.48529412       0.48529412 </v>
     <v>       0.47058824       0.47058824       0.47058824 </v>
     <v>       0.45588235       0.45588235       0.45588235 </v>
     <v>       0.44117647       0.44117647       0.44117647 </v>
     <v>       0.42647059       0.42647059       0.42647059 </v>
     <v>       0.41176471       0.41176471       0.41176471 </v>
     <v>       0.39705882       0.39705882       0.39705882 </v>
     <v>       0.38235294       0.38235294       0.38235294 </v>
     <v>       0.36764706       0.36764706       0.36764706 </v>
     <v>       0.35294118       0.35294118       0.35294118 </v>
     <v>       0.33823529       0.33823529       0.33823529 </v>
     <v>       0.32352941       0.32352941       0.32352941 </v>
     <v>       0.30882353       0.30882353       0.30882353 </v>
     <v>       0.29411765       0.29411765       0.29411765 </v>
     <v>       0.27941176       0.27941176       0.27941176 </v>
     <v>       0.26470588       0.26470588       0.26470588 </v>
     <v>       0.25000000       0.25000000       0.25000000 </v>
     <v>       0.23529412       0.23529412       0.23529412 </v>
     <v>       0.22058824       0.22058824       0.22058824 </v>
     <v>       0.20588235       0.20588235       0.20588235 </v>
     <v>       0.19117647       0.19117647       0.19117647 </v>
     <v>       0.17647059       0.17647059       0.17647059 </v>
     <v>       0.16176471       0.16176471       0.16176471 </v>
     <v>       0.14705882       0.14705882       0.14705882 </v>
     <v>       0.13235294       0.13235294       0.13235294 </v>
     <v>       0.11764706       0.11764706       0.11764706 </v>
     <v>       0.10294118       0.10294118       0.10294118 </v>
     <v>       0.08823529       0.08823529       0.08823529 </v>
     <v>       0.07352941       0.07352941       0.07352941 </v>
     <v>       0.05882353       0.05882353       0.05882353 </v>
     <v>       0.04411765       0.04411765       0.04411765 </v>
     <v>       0.02941176       0.02941176       0.02941176 </v>
     <v>       0.01470588       0.01470588       0.01470588 </v>
     <v>       0.00000000       0.00000000       0.00000000 </v>
     <v>       0.00000000       0.00000000       0.00000000 </v>
     <v>       0.01470588       0.00000000       0.01470588 </v>
     <v>       0.02941176       0.00000000       0.02941176 </v>
     <v>       0.04411765       0.00000000       0.04411765 </v>
     <v>       0.05882353       0.00000000       0.05882353 </v>
     <v>       0.07352941       0.00000000       0.07352941 </v>
     <v>       0.08823529       0.00000000       0.08823529 </v>
     <v>       0.10294118       0.00000000       0.10294118 </v>
     <v>       0.11764706       0.00000000       0.11764706 </v>
     <v>       0.13235294       0.00000000       0.13235294 </v>
     <v>       0.14705882       0.00000000       0.14705882 </v>
     <v>       0.16176471       0.00000000       0.16176471 </v>
     <v>       0.17647059       0.00000000       0.17647059 </v>
     <v>       0.19117647       0.00000000       0.19117647 </v>
     <v>       0.20588235       0.00000000       0.20588235 </v>
     <v>       0.22058824       0.00000000       0.22058824 </v>
     <v>       0.23529412       0.00000000       0.23529412 </v>
     <v>       0.25000000       0.00000000       0.25000000 </v>
     <v>       0.26470588       0.00000000       0.26470588 </v>
     <v>       0.27941176       0.00000000       0.27941176 </v>
     <v>       0.29411765       0.00000000       0.29411765 </v>
     <v>       0.30882353       0.00000000       0.30882353 </v>
     <v>       0.32352941       0.00000000       0.32352941 </v>
     <v>       0.33823529       0.00000000       0.33823529 </v>
     <v>       0.35294118       0.00000000       0.35294118 </v>
     <v>       0.36764706       0.00000000       0.36764706 </v>
     <v>       0.38235294       0.00000000       0.38235294 </v>
     <v>       0.39705882       0.00000000       0.39705882 </v>
     <v>       0.41176471       0.00000000       0.41176471 </v>
     <v>       0.42647059       0.00000000       0.42647059 </v>
     <v>       0.44117647       0.00000000       0.44117647 </v>
     <v>       0.45588235       0.00000000       0.45588235 </v>
     <v>       0.47058824       0.00000000       0.47058824 </v>
     <v>       0.48529412       0.00000000       0.48529412 </v>
     <v>       0.50000000       0.00000000       0.50000000 </v>
     <v>       0.50000000       0.00000000       0.50000000 </v>
     <v>       0.49632353       0.01102941       0.50735294 </v>
     <v>       0.49264706       0.02205882       0.51470588 </v>
     <v>       0.48897059       0.03308824       0.52205882 </v>
     <v>       0.48529412       0.04411765       0.52941176 </v>
     <v>       0.48161765       0.05514706       0.53676471 </v>
     <v>       0.47794118       0.06617647       0.54411765 </v>
     <v>       0.47426471       0.07720588       0.55147059 </v>
     <v>       0.47058824       0.08823529       0.55882353 </v>
     <v>       0.46691176       0.09926471       0.56617647 </v>
     <v>       0.46323529       0.11029412       0.57352941 </v>
     <v>       0.45955882       0.12132353       0.58088235 </v>
     <v>       0.45588235       0.13235294       0.58823529 </v>
     <v>       0.45220588       0.14338235       0.59558824 </v>
     <v>       0.44852941       0.15441176       0.60294118 </v>
     <v>       0.44485294       0.16544118       0.61029412 </v>
     <v>       0.44117647       0.17647059       0.61764706 </v>
     <v>       0.43750000       0.18750000       0.62500000 </v>
     <v>       0.43382353       0.19852941       0.63235294 </v>
     <v>       0.43014706       0.20955882       0.63970588 </v>
     <v>       0.42647059       0.22058824       0.64705882 </v>
     <v>       0.42279412       0.23161765       0.65441176 </v>
     <v>       0.41911765       0.24264706       0.66176471 </v>
     <v>       0.41544118       0.25367647       0.66911765 </v>
     <v>       0.41176471       0.26470588       0.67647059 </v>
     <v>       0.40808824       0.27573529       0.68382353 </v>
     <v>       0.40441176       0.28676471       0.69117647 </v>
     <v>       0.40073529       0.29779412       0.69852941 </v>
     <v>       0.39705882       0.30882353       0.70588235 </v>
     <v>       0.39338235       0.31985294       0.71323529 </v>
     <v>       0.38970588       0.33088235       0.72058824 </v>
     <v>       0.38602941       0.34191176       0.72794118 </v>
     <v>       0.38235294       0.35294118       0.73529412 </v>
     <v>       0.37867647       0.36397059       0.74264706 </v>
     <v>       0.37500000       0.37500000       0.75000000 </v>
     <v>       0.37500000       0.37500000       0.75000000 </v>
     <v>       0.36397059       0.36397059       0.72794118 </v>
     <v>       0.35294118       0.35294118       0.70588235 </v>
     <v>       0.34191176       0.34191176       0.68382353 </v>
     <v>       0.33088235       0.33088235       0.66176471 </v>
     <v>       0.31985294       0.31985294       0.63970588 </v>
     <v>       0.30882353       0.30882353       0.61764706 </v>
     <v>       0.29779412       0.29779412       0.59558824 </v>
     <v>       0.28676471       0.28676471       0.57352941 </v>
     <v>       0.27573529       0.27573529       0.55147059 </v>
     <v>       0.26470588       0.26470588       0.52941176 </v>
     <v>       0.25367647       0.25367647       0.50735294 </v>
     <v>       0.24264706       0.24264706       0.48529412 </v>
     <v>       0.23161765       0.23161765       0.46323529 </v>
     <v>       0.22058824       0.22058824       0.44117647 </v>
     <v>       0.20955882       0.20955882       0.41911765 </v>
     <v>       0.19852941       0.19852941       0.39705882 </v>
     <v>       0.18750000       0.18750000       0.37500000 </v>
     <v>       0.17647059       0.17647059       0.35294118 </v>
     <v>       0.16544118       0.16544118       0.33088235 </v>
     <v>       0.15441176       0.15441176       0.30882353 </v>
     <v>       0.14338235       0.14338235       0.28676471 </v>
     <v>       0.13235294       0.13235294       0.26470588 </v>
     <v>       0.12132353       0.12132353       0.24264706 </v>
     <v>       0.11029412       0.11029412       0.22058824 </v>
     <v>       0.09926471       0.09926471       0.19852941 </v>
     <v>       0.08823529       0.08823529       0.17647059 </v>
     <v>       0.07720588       0.07720588       0.15441176 </v>
     <v>       0.06617647       0.06617647       0.13235294 </v>
     <v>       0.05514706       0.05514706       0.11029412 </v>
     <v>       0.04411765       0.04411765       0.08823529 </v>
     <v>       0.03308824       0.03308824       0.06617647 </v>
     <v>       0.02205882       0.02205882       0.04411765 </v>
     <v>       0.01102941       0.01102941       0.02205882 </v>
     <v>      -0.00000000      -0.00000000      -0.00000000 </v>
    </varray>
    <varray name="weights" >
     <v>       0.00714286 </v>
     <v>       0.00714286 </v>
     <v>       0.00714286 </v>
     <v>       0.00714286 </v>
     <v>       0.00714286 </v>
     <v>       0.00714286 </v>
     <v>       0.00714286 </v>
     <v>       0.00714286 </v>
     <v>       0.00714286 </v>
     <v>       0.00714286 </v>
     <v>       0.00714286 </v>
     <v>       0.00714286 </v>
     <v>       0.00714286 </v>
     <v>       0.00714286 </v>
     <v>       0.00714286 </v>
     <v>       0.00714286 </v>
     <v>       0.00714286 </v>
     <v>       0.00714286 </v>
     <v>       0.00714286 </v>
     <v>       0.00714286 </v>
     <v>       0.00714286 </v>
     <v>       0.00714286 </v>
     <v>       0.00714286 </v>
     <v>       0.00714286 </v>
     <v>       0.00714286 </v>
     <v>       0.00714286 </v>
     <v>       0.00714286 </v>
     <v>       0.00714286 </v>
     <v>       0.00714286 </v>
     <v>       0.00714286 </v>
     <v>       0.00714286 </v>
     <v>       0.00714286 </v>
     <v>       0.00714286 </v>
     <v>       0.00714286 </v>
     <v>       0.00714286 </v>
     <v>       0.00714286 </v>
     <v>       0.00714286 </v>
     <v>       0.00714286 </v>
     <v>       0.00714286 </v>
     <v>       0.00714286 </v>
     <v>       0.00714286 </v>
     <v>       0.00714286 </v>
     <v>       0.00714286 </v>
     <v>       0.00714286 </v>
     <v>       0.00714286 </v>
     <v>       0.00714286 </v>
     <v>       0.00714286 </v>
     <v>       0.00714286 </v>
     <v>       0.00714286 </v>
     <v>       0.00714286 </v>
     <v>       0.00714286 </v>
     <v>       0.00714286 </v>
     <v>       0.00714286 </v>
     <v>       0.00714286 </v>
     <v>       0.00714286 </v>
     <v>       0.00714286 </v>
     <v>       0.00714286 </v>
     <v>       0.00714286 </v>
     <v>       0.00714286 </v>
     <v>       0.00714286 </v>
     <v>       0.00714286 </v>
     <v>       0.00714286 </v>
     <v>       0.00714286 </v>
     <v>       0.00714286 </v>
     <v>       0.00714286 </v>
     <v>       0.00714286 </v>
     <v>       0.00714286 </v>
     <v>       0.00714286 </v>
     <v>       0.00714286 </v>
     <v>       0.00714286 </v>
     <v>       0.00714286 </v>
     <v>       0.00714286 </v>
     <v>       0.00714286 </v>
     <v>       0.00714286 </v>
     <v>       0.00714286 </v>
     <v>       0.00714286 </v>
     <v>       0.00714286 </v>
     <v>       0.00714286 </v>
     <v>       0.00714286 </v>
     <v>       0.00714286 </v>
     <v>       0.00714286 </v>
     <v>       0.00714286 </v>
     <v>       0.00714286 </v>
     <v>       0.00714286 </v>
     <v>       0.00714286 </v>
     <v>       0.00714286 </v>
     <v>       0.00714286 </v>
     <v>       0.00714286 </v>
     <v>       0.00714286 </v>
     <v>       0.00714286 </v>
     <v>       0.00714286 </v>
     <v>       0.00714286 </v>
     <v>       0.00714286 </v>
     <v>       0.00714286 </v>
     <v>       0.00714286 </v>
     <v>       0.00714286 </v>
     <v>       0.00714286 </v>
     <v>       0.00714286 </v>
     <v>       0.00714286 </v>
     <v>       0.00714286 </v>
     <v>       0.00714286 </v>
     <v>       0.00714286 </v>
     <v>       0.00714286 </v>
     <v>       0.00714286 </v>
     <v>       0.00714286 </v>
     <v>       0.00714286 </v>
     <v>       0.00714286 </v>
     <v>       0.00714286 </v>
     <v>       0.00714286 </v>
     <v>       0.00714286 </v>
     <v>       0.00714286 </v>
     <v>       0.00714286 </v>
     <v>       0.00714286 </v>
     <v>       0.00714286 </v>
     <v>       0.00714286 </v>
     <v>       0.00714286 </v>
     <v>       0.00714286 </v>
     <v>       0.00714286 </v>
     <v>       0.00714286 </v>
     <v>       0.00714286 </v>
     <v>       0.00714286 </v>
     <v>       0.00714286 </v>
     <v>       0.00714286 </v>
     <v>       0.00714286 </v>
     <v>       0.00714286 </v>
     <v>       0.00714286 </v>
     <v>       0.00714286 </v>
     <v>       0.00714286 </v>
     <v>       0.00714286 </v>
     <v>       0.00714286 </v>
     <v>       0.00714286 </v>
     <v>       0.00714286 </v>
     <v>       0.00714286 </v>
     <v>       0.00714286 </v>
     <v>       0.00714286 </v>
     <v>       0.00714286 </v>
     <v>       0.00714286 </v>
     <v>       0.00714286 </v>
     <v>       0.00714286 </v>
     <v>       0.00714286 </v>
    </varray>
   </kpoints>
   <eigenvalues>
    <array>
     <dimension dim="1">band</dimension>
     <dimension dim="2">kpoint</dimension>
     <dimension dim="3">spin</dimension>
     <field>eigene</field>
     <set>
      <set comment="spin 1">
       <set comment="kpoint 1">
        <r>   -6.0090 </r>
        <r>   -3.6641 </r>
        <r>    6.8649 </r>
        <r>    6.8649 </r>
        <r>   18.0904 </r>
        <r>   18.0904 </r>
        <r>   18.4319 </r>
        <r>   25.3029 </r>
       </set>
       <set comment="kpoint 2">
        <r>   -6.0676 </r>
        <r>   -3.5957 </r>
        <r>    6.8687 </r>
        <r>    6.8687 </r>
        <r>   18.0899 </r>
        <r>   18.0899 </r>
        <r>   18.4300 </r>
        <r>   25.3000 </r>
       </set>
       <set comment="kpoint 3">
        <r>   -6.2260 </r>
        <r>   -3.4078 </r>
        <r>    6.8801 </r>
        <r>    6.8801 </r>
        <r>   18.0883 </r>
        <r>   18.0883 </r>
        <r>   18.4242 </r>
        <r>   25.2914 </r>
       </set>
       <set comment="kpoint 4">
        <r>   -6.4501 </r>
        <r>   -3.1346 </r>
        <r>    6.8989 </r>
        <r>    6.8989 </r>
        <r>   18.0853 </r>
        <r>   18.0853 </r>
        <r>   18.4145 </r>
        <r>   25.2765 </r>
       </set>
       <set comment="kpoint 5">
        <r>   -6.7108 </r>
        <r>   -2.8053 </r>
        <r>    6.9254 </r>
        <r>    6.9254 </r>
        <r>   18.0805 </r>
        <r>   18.0805 </r>
        <r>   18.4009 </r>
        <r>   25.2551 </r>
       </set>
       <set comment="kpoint 6">
        <r>   -6.9898 </r>
        <r>   -2.4383 </r>
        <r>    6.9593 </r>
        <r>    6.9593 </r>
        <r>   18.0732 </r>
        <r>   18.0732 </r>
        <r>   18.3832 </r>
        <r>   25.2264 </r>
       </set>
       <set comment="kpoint 7">
        <r>   -7.2762 </r>
        <r>   -2.0446 </r>
        <r>    7.0006 </r>
        <r>    7.0006 </r>
        <r>   18.0626 </r>
        <r>   18.0626 </r>
        <r>   18.3613 </r>
        <r>   25.1898 </r>
       </set>
       <set comment="kpoint 8">
        <r>   -7.5636 </r>
        <r>   -1.6308 </r>
        <r>    7.0493 </r>
        <r>    7.0493 </r>
        <r>   18.0477 </r>
        <r>   18.0477 </r>
        <r>   18.3350 </r>
        <r>   25.1445 </r>
       </set>
       <set comment="kpoint 9">
        <r>   -7.8483 </r>
        <r>   -1.2011 </r>
        <r>    7.1054 </r>
        <r>    7.1054 </r>
        <r>   18.0274 </r>
        <r>   18.0274 </r>
        <r>   18.3040 </r>
        <r>   25.0900 </r>
       </set>
       <set comment="kpoint 10">
        <r>   -8.1275 </r>
        <r>   -0.7581 </r>
        <r>    7.1687 </r>
        <r>    7.1687 </r>
        <r>   18.0006 </r>
        <r>   18.0006 </r>
        <r>   18.2682 </r>
        <r>   25.0258 </r>
       </set>
       <set comment="kpoint 11">
        <r>   -8.3999 </r>
        <r>   -0.3038 </r>
        <r>    7.2391 </r>
        <r>    7.2391 </r>
        <r>   17.9660 </r>
        <r>   17.9660 </r>
        <r>   18.2271 </r>
        <r>   24.9517 </r>
       </set>
       <set comment="kpoint 12">
        <r>   -8.6641 </r>
        <r>    0.1601 </r>
        <r>    7.3164 </r>
        <r>    7.3164 </r>
        <r>   17.9223 </r>
        <r>   17.9223 </r>
        <r>   18.1803 </r>
        <r>   24.8679 </r>
       </set>
       <set comment="kpoint 13">
        <r>   -8.9194 </r>
        <r>    0.6326 </r>
        <r>    7.4006 </r>
        <r>    7.4006 </r>
        <r>   17.8685 </r>
        <r>   17.8685 </r>
        <r>   18.1275 </r>
        <r>   24.7747 </r>
       </set>
       <set comment="kpoint 14">
        <r>   -9.1653 </r>
        <r>    1.1124 </r>
        <r>    7.4913 </r>
        <r>    7.4913 </r>
        <r>   17.8034 </r>
        <r>   17.8034 </r>
        <r>   18.0680 </r>
        <r>   24.6731 </r>
       </set>
       <set comment="kpoint 15">
        <r>   -9.4011 </r>
        <r>    1.5986 </r>
        <r>    7.5884 </r>
        <r>    7.5884 </r>
        <r>   17.7263 </r>
        <r>   17.7263 </r>
        <r>   18.0013 </r>
        <r>   24.5639 </r>
       </set>
       <set comment="kpoint 16">
        <r>   -9.6266 </r>
        <r>    2.0901 </r>
        <r>    7.6916 </r>
        <r>    7.6916 </r>
        <r>   17.6364 </r>
        <r>   17.6364 </r>
        <r>   17.9266 </r>
        <r>   24.4485 </r>
       </set>
       <set comment="kpoint 17">
        <r>   -9.8415 </r>
        <r>    2.5859 </r>
        <r>    7.8006 </r>
        <r>    7.8006 </r>
        <r>   17.5335 </r>
        <r>   17.5335 </r>
        <r>   17.8434 </r>
        <r>   24.3284 </r>
       </set>
       <set comment="kpoint 18">
        <r>  -10.0456 </r>
        <r>    3.0850 </r>
        <r>    7.9149 </r>
        <r>    7.9149 </r>
        <r>   17.4178 </r>
        <r>   17.4178 </r>
        <r>   17.7507 </r>
        <r>   24.2050 </r>
       </set>
       <set comment="kpoint 19">
        <r>  -10.2387 </r>
        <r>    3.5862 </r>
        <r>    8.0340 </r>
        <r>    8.0340 </r>
        <r>   17.2896 </r>
        <r>   17.2896 </r>
        <r>   17.6478 </r>
        <r>   24.0801 </r>
       </set>
       <set comment="kpoint 20">
        <r>  -10.4206 </r>
        <r>    4.0883 </r>
        <r>    8.1574 </r>
        <r>    8.1574 </r>
        <r>   17.1499 </r>
        <r>   17.1499 </r>
        <r>   17.5340 </r>
        <r>   23.9553 </r>
       </set>
       <set comment="kpoint 21">
        <r>  -10.5913 </r>
        <r>    4.5896 </r>
        <r>    8.2844 </r>
        <r>    8.2844 </r>
        <r>   16.9999 </r>
        <r>   16.9999 </r>
        <r>   17.4085 </r>
        <r>   23.8321 </r>
       </set>
       <set comment="kpoint 22">
        <r>  -10.7505 </r>
        <r>    5.0886 </r>
        <r>    8.4142 </r>
        <r>    8.4142 </r>
        <r>   16.8414 </r>
        <r>   16.8414 </r>
        <r>   17.2709 </r>
        <r>   23.7120 </r>
       </set>
       <set comment="kpoint 23">
        <r>  -10.8982 </r>
        <r>    5.5835 </r>
        <r>    8.5458 </r>
        <r>    8.5458 </r>
        <r>   16.6763 </r>
        <r>   16.6763 </r>
        <r>   17.1208 </r>
        <r>   23.5964 </r>
       </set>
       <set comment="kpoint 24">
        <r>  -11.0344 </r>
        <r>    6.0719 </r>
        <r>    8.6782 </r>
        <r>    8.6782 </r>
        <r>   16.5069 </r>
        <r>   16.5069 </r>
        <r>   16.9582 </r>
        <r>   23.4865 </r>
       </set>
       <set comment="kpoint 25">
        <r>  -11.1589 </r>
        <r>    6.5514 </r>
        <r>    8.8099 </r>
        <r>    8.8099 </r>
        <r>   16.3358 </r>
        <r>   16.3358 </r>
        <r>   16.7837 </r>
        <r>   23.3836 </r>
       </set>
       <set comment="kpoint 26">
        <r>  -11.2717 </r>
        <r>    7.0186 </r>
        <r>    8.9395 </r>
        <r>    8.9395 </r>
        <r>   16.1660 </r>
        <r>   16.1660 </r>
        <r>   16.5984 </r>
        <r>   23.2884 </r>
       </set>
       <set comment="kpoint 27">
        <r>  -11.3727 </r>
        <r>    7.4697 </r>
        <r>    9.0651 </r>
        <r>    9.0651 </r>
        <r>   16.0004 </r>
        <r>   16.0004 </r>
        <r>   16.4043 </r>
        <r>   23.2019 </r>
       </set>
       <set comment="kpoint 28">
        <r>  -11.4620 </r>
        <r>    7.9000 </r>
        <r>    9.1848 </r>
        <r>    9.1848 </r>
        <r>   15.8424 </r>
        <r>   15.8424 </r>
        <r>   16.2046 </r>
        <r>   23.1246 </r>
       </set>
       <set comment="kpoint 29">
        <r>  -11.5394 </r>
        <r>    8.3034 </r>
        <r>    9.2961 </r>
        <r>    9.2961 </r>
        <r>   15.6953 </r>
        <r>   15.6953 </r>
        <r>   16.0037 </r>
        <r>   23.0571 </r>
       </set>
       <set comment="kpoint 30">
        <r>  -11.6050 </r>
        <r>    8.6727 </r>
        <r>    9.3967 </r>
        <r>    9.3967 </r>
        <r>   15.5627 </r>
        <r>   15.5627 </r>
        <r>   15.8077 </r>
        <r>   22.9996 </r>
       </set>
       <set comment="kpoint 31">
        <r>  -11.6587 </r>
        <r>    8.9988 </r>
        <r>    9.4839 </r>
        <r>    9.4839 </r>
        <r>   15.4481 </r>
        <r>   15.4481 </r>
        <r>   15.6246 </r>
        <r>   22.9524 </r>
       </set>
       <set comment="kpoint 32">
        <r>  -11.7004 </r>
        <r>    9.2710 </r>
        <r>    9.5551 </r>
        <r>    9.5551 </r>
        <r>   15.3548 </r>
        <r>   15.3548 </r>
        <r>   15.4644 </r>
        <r>   22.9156 </r>
       </set>
       <set comment="kpoint 33">
        <r>  -11.7303 </r>
        <r>    9.4776 </r>
        <r>    9.6079 </r>
        <r>    9.6079 </r>
        <r>   15.2857 </r>
        <r>   15.2857 </r>
        <r>   15.3383 </r>
        <r>   22.8893 </r>
       </set>
       <set comment="kpoint 34">
        <r>  -11.7482 </r>
        <r>    9.6073 </r>
        <r>    9.6405 </r>
        <r>    9.6405 </r>
        <r>   15.2432 </r>
        <r>   15.2432 </r>
        <r>   15.2570 </r>
        <r>   22.8735 </r>
       </set>
       <set comment="kpoint 35">
        <r>  -11.7542 </r>
        <r>    9.6515 </r>
        <r>    9.6515 </r>
        <r>    9.6515 </r>
        <r>   15.2289 </r>
        <r>   15.2289 </r>
        <r>   15.2289 </r>
        <r>   22.8682 </r>
       </set>
       <set comment="kpoint 36">
        <r>  -11.7542 </r>
        <r>    9.6515 </r>
        <r>    9.6515 </r>
        <r>    9.6515 </r>
        <r>   15.2289 </r>
        <r>   15.2289 </r>
        <r>   15.2289 </r>
        <r>   22.8682 </r>
       </set>
       <set comment="kpoint 37">
        <r>  -11.7462 </r>
        <r>    9.6173 </r>
        <r>    9.6173 </r>
        <r>    9.6316 </r>
        <r>   15.2224 </r>
        <r>   15.2699 </r>
        <r>   15.2699 </r>
        <r>   22.8751 </r>
       </set>
       <set comment="kpoint 38">
        <r>  -11.7223 </r>
        <r>    9.5178 </r>
        <r>    9.5178 </r>
        <r>    9.5723 </r>
        <r>   15.2031 </r>
        <r>   15.3901 </r>
        <r>   15.3901 </r>
        <r>   22.8948 </r>
       </set>
       <set comment="kpoint 39">
        <r>  -11.6825 </r>
        <r>    9.3611 </r>
        <r>    9.3611 </r>
        <r>    9.4744 </r>
        <r>   15.1715 </r>
        <r>   15.5810 </r>
        <r>   15.5810 </r>
        <r>   22.9238 </r>
       </set>
       <set comment="kpoint 40">
        <r>  -11.6268 </r>
        <r>    9.1581 </r>
        <r>    9.1581 </r>
        <r>    9.3394 </r>
        <r>   15.1283 </r>
        <r>   15.8317 </r>
        <r>   15.8317 </r>
        <r>   22.9563 </r>
       </set>
       <set comment="kpoint 41">
        <r>  -11.5553 </r>
        <r>    8.9199 </r>
        <r>    8.9199 </r>
        <r>    9.1692 </r>
        <r>   15.0745 </r>
        <r>   16.1313 </r>
        <r>   16.1313 </r>
        <r>   22.9842 </r>
       </set>
       <set comment="kpoint 42">
        <r>  -11.4679 </r>
        <r>    8.6563 </r>
        <r>    8.6563 </r>
        <r>    8.9657 </r>
        <r>   15.0110 </r>
        <r>   16.4693 </r>
        <r>   16.4693 </r>
        <r>   22.9970 </r>
       </set>
       <set comment="kpoint 43">
        <r>  -11.3647 </r>
        <r>    8.3755 </r>
        <r>    8.3755 </r>
        <r>    8.7313 </r>
        <r>   14.9393 </r>
        <r>   16.8375 </r>
        <r>   16.8375 </r>
        <r>   22.9817 </r>
       </set>
       <set comment="kpoint 44">
        <r>  -11.2458 </r>
        <r>    8.0841 </r>
        <r>    8.0841 </r>
        <r>    8.4684 </r>
        <r>   14.8608 </r>
        <r>   17.2292 </r>
        <r>   17.2292 </r>
        <r>   22.9240 </r>
       </set>
       <set comment="kpoint 45">
        <r>  -11.1111 </r>
        <r>    7.7873 </r>
        <r>    7.7873 </r>
        <r>    8.1791 </r>
        <r>   14.7770 </r>
        <r>   17.6391 </r>
        <r>   17.6391 </r>
        <r>   22.8103 </r>
       </set>
       <set comment="kpoint 46">
        <r>  -10.9608 </r>
        <r>    7.4889 </r>
        <r>    7.4889 </r>
        <r>    7.8656 </r>
        <r>   14.6893 </r>
        <r>   18.0629 </r>
        <r>   18.0629 </r>
        <r>   22.6297 </r>
       </set>
       <set comment="kpoint 47">
        <r>  -10.7950 </r>
        <r>    7.1920 </r>
        <r>    7.1920 </r>
        <r>    7.5299 </r>
        <r>   14.5991 </r>
        <r>   18.4971 </r>
        <r>   18.4971 </r>
        <r>   22.3780 </r>
       </set>
       <set comment="kpoint 48">
        <r>  -10.6136 </r>
        <r>    6.8991 </r>
        <r>    6.8991 </r>
        <r>    7.1739 </r>
        <r>   14.5080 </r>
        <r>   18.9391 </r>
        <r>   18.9391 </r>
        <r>   22.0585 </r>
       </set>
       <set comment="kpoint 49">
        <r>  -10.4169 </r>
        <r>    6.6122 </r>
        <r>    6.6122 </r>
        <r>    6.7992 </r>
        <r>   14.4173 </r>
        <r>   19.3865 </r>
        <r>   19.3865 </r>
        <r>   21.6811 </r>
       </set>
       <set comment="kpoint 50">
        <r>  -10.2049 </r>
        <r>    6.3327 </r>
        <r>    6.3327 </r>
        <r>    6.4074 </r>
        <r>   14.3284 </r>
        <r>   19.8373 </r>
        <r>   19.8373 </r>
        <r>   21.2597 </r>
       </set>
       <set comment="kpoint 51">
        <r>   -9.9777 </r>
        <r>    5.9998 </r>
        <r>    6.0621 </r>
        <r>    6.0621 </r>
        <r>   14.2423 </r>
        <r>   20.2896 </r>
        <r>   20.2896 </r>
        <r>   20.8087 </r>
       </set>
       <set comment="kpoint 52">
        <r>   -9.7355 </r>
        <r>    5.5779 </r>
        <r>    5.8013 </r>
        <r>    5.8013 </r>
        <r>   14.1605 </r>
        <r>   20.3411 </r>
        <r>   20.7420 </r>
        <r>   20.7420 </r>
       </set>
       <set comment="kpoint 53">
        <r>   -9.4784 </r>
        <r>    5.1428 </r>
        <r>    5.5512 </r>
        <r>    5.5512 </r>
        <r>   14.0838 </r>
        <r>   19.8674 </r>
        <r>   21.1927 </r>
        <r>   21.1927 </r>
       </set>
       <set comment="kpoint 54">
        <r>   -9.2065 </r>
        <r>    4.6959 </r>
        <r>    5.3127 </r>
        <r>    5.3127 </r>
        <r>   14.0135 </r>
        <r>   19.3963 </r>
        <r>   21.6403 </r>
        <r>   21.6403 </r>
       </set>
       <set comment="kpoint 55">
        <r>   -8.9201 </r>
        <r>    4.2383 </r>
        <r>    5.0863 </r>
        <r>    5.0863 </r>
        <r>   13.9504 </r>
        <r>   18.9341 </r>
        <r>   22.0831 </r>
        <r>   22.0831 </r>
       </set>
       <set comment="kpoint 56">
        <r>   -8.6193 </r>
        <r>    3.7712 </r>
        <r>    4.8725 </r>
        <r>    4.8725 </r>
        <r>   13.8955 </r>
        <r>   18.4854 </r>
        <r>   22.5194 </r>
        <r>   22.5194 </r>
       </set>
       <set comment="kpoint 57">
        <r>   -8.3044 </r>
        <r>    3.2959 </r>
        <r>    4.6719 </r>
        <r>    4.6719 </r>
        <r>   13.8496 </r>
        <r>   18.0537 </r>
        <r>   22.9473 </r>
        <r>   22.9473 </r>
       </set>
       <set comment="kpoint 58">
        <r>   -7.9756 </r>
        <r>    2.8136 </r>
        <r>    4.4848 </r>
        <r>    4.4848 </r>
        <r>   13.8135 </r>
        <r>   17.6412 </r>
        <r>   23.3647 </r>
        <r>   23.3647 </r>
       </set>
       <set comment="kpoint 59">
        <r>   -7.6332 </r>
        <r>    2.3255 </r>
        <r>    4.3116 </r>
        <r>    4.3116 </r>
        <r>   13.7880 </r>
        <r>   17.2498 </r>
        <r>   23.7693 </r>
        <r>   23.7693 </r>
       </set>
       <set comment="kpoint 60">
        <r>   -7.2774 </r>
        <r>    1.8329 </r>
        <r>    4.1525 </r>
        <r>    4.1525 </r>
        <r>   13.7737 </r>
        <r>   16.8803 </r>
        <r>   24.1584 </r>
        <r>   24.1584 </r>
       </set>
       <set comment="kpoint 61">
        <r>   -6.9086 </r>
        <r>    1.3370 </r>
        <r>    4.0079 </r>
        <r>    4.0079 </r>
        <r>   13.7715 </r>
        <r>   16.5333 </r>
        <r>   24.5288 </r>
        <r>   24.5288 </r>
       </set>
       <set comment="kpoint 62">
        <r>   -6.5272 </r>
        <r>    0.8392 </r>
        <r>    3.8780 </r>
        <r>    3.8780 </r>
        <r>   13.7820 </r>
        <r>   16.2092 </r>
        <r>   24.8771 </r>
        <r>   24.8771 </r>
       </set>
       <set comment="kpoint 63">
        <r>   -6.1334 </r>
        <r>    0.3406 </r>
        <r>    3.7630 </r>
        <r>    3.7630 </r>
        <r>   13.8059 </r>
        <r>   15.9078 </r>
        <r>   25.1997 </r>
        <r>   25.1997 </r>
       </set>
       <set comment="kpoint 64">
        <r>   -5.7279 </r>
        <r>   -0.1576 </r>
        <r>    3.6629 </r>
        <r>    3.6629 </r>
        <r>   13.8438 </r>
        <r>   15.6289 </r>
        <r>   25.4921 </r>
        <r>   25.4921 </r>
       </set>
       <set comment="kpoint 65">
        <r>   -5.3109 </r>
        <r>   -0.6541 </r>
        <r>    3.5781 </r>
        <r>    3.5781 </r>
        <r>   13.8964 </r>
        <r>   15.3721 </r>
        <r>   25.7502 </r>
        <r>   25.7502 </r>
       </set>
       <set comment="kpoint 66">
        <r>   -4.8831 </r>
        <r>   -1.1479 </r>
        <r>    3.5085 </r>
        <r>    3.5085 </r>
        <r>   13.9643 </r>
        <r>   15.1371 </r>
        <r>   25.9693 </r>
        <r>   25.9693 </r>
       </set>
       <set comment="kpoint 67">
        <r>   -4.4450 </r>
        <r>   -1.6379 </r>
        <r>    3.4543 </r>
        <r>    3.4543 </r>
        <r>   14.0481 </r>
        <r>   14.9232 </r>
        <r>   26.1452 </r>
        <r>   26.1452 </r>
       </set>
       <set comment="kpoint 68">
        <r>   -3.9972 </r>
        <r>   -2.1231 </r>
        <r>    3.4155 </r>
        <r>    3.4155 </r>
        <r>   14.1486 </r>
        <r>   14.7298 </r>
        <r>   26.2740 </r>
        <r>   26.2740 </r>
       </set>
       <set comment="kpoint 69">
        <r>   -3.5403 </r>
        <r>   -2.6025 </r>
        <r>    3.3922 </r>
        <r>    3.3922 </r>
        <r>   14.2664 </r>
        <r>   14.5563 </r>
        <r>   26.3526 </r>
        <r>   26.3526 </r>
       </set>
       <set comment="kpoint 70">
        <r>   -3.0752 </r>
        <r>   -3.0752 </r>
        <r>    3.3845 </r>
        <r>    3.3845 </r>
        <r>   14.4021 </r>
        <r>   14.4021 </r>
        <r>   26.3790 </r>
        <r>   26.3790 </r>
       </set>
       <set comment="kpoint 71">
        <r>   -3.0752 </r>
        <r>   -3.0752 </r>
        <r>    3.3845 </r>
        <r>    3.3845 </r>
        <r>   14.4021 </r>
        <r>   14.4021 </r>
        <r>   26.3790 </r>
        <r>   26.3790 </r>
       </set>
       <set comment="kpoint 72">
        <r>   -3.1893 </r>
        <r>   -2.9549 </r>
        <r>    3.3747 </r>
        <r>    3.3749 </r>
        <r>   14.3851 </r>
        <r>   14.4575 </r>
        <r>   26.3684 </r>
        <r>   26.3693 </r>
       </set>
       <set comment="kpoint 73">
        <r>   -3.2968 </r>
        <r>   -2.8288 </r>
        <r>    3.3453 </r>
        <r>    3.3469 </r>
        <r>   14.4067 </r>
        <r>   14.5509 </r>
        <r>   26.3344 </r>
        <r>   26.3415 </r>
       </set>
       <set comment="kpoint 74">
        <r>   -3.3975 </r>
        <r>   -2.6974 </r>
        <r>    3.2967 </r>
        <r>    3.3017 </r>
        <r>   14.4662 </r>
        <r>   14.6812 </r>
        <r>   26.2742 </r>
        <r>   26.2980 </r>
       </set>
       <set comment="kpoint 75">
        <r>   -3.4911 </r>
        <r>   -2.5614 </r>
        <r>    3.2295 </r>
        <r>    3.2414 </r>
        <r>   14.5626 </r>
        <r>   14.8469 </r>
        <r>   26.1845 </r>
        <r>   26.2405 </r>
       </set>
       <set comment="kpoint 76">
        <r>   -3.5775 </r>
        <r>   -2.4215 </r>
        <r>    3.1451 </r>
        <r>    3.1683 </r>
        <r>   14.6942 </r>
        <r>   15.0461 </r>
        <r>   26.0624 </r>
        <r>   26.1706 </r>
       </set>
       <set comment="kpoint 77">
        <r>   -3.6565 </r>
        <r>   -2.2787 </r>
        <r>    3.0452 </r>
        <r>    3.0850 </r>
        <r>   14.8592 </r>
        <r>   15.2766 </r>
        <r>   25.9052 </r>
        <r>   26.0895 </r>
       </set>
       <set comment="kpoint 78">
        <r>   -3.7281 </r>
        <r>   -2.1342 </r>
        <r>    2.9315 </r>
        <r>    2.9944 </r>
        <r>   15.0555 </r>
        <r>   15.5362 </r>
        <r>   25.7109 </r>
        <r>   25.9981 </r>
       </set>
       <set comment="kpoint 79">
        <r>   -3.7921 </r>
        <r>   -1.9892 </r>
        <r>    2.8061 </r>
        <r>    2.8999 </r>
        <r>   15.2807 </r>
        <r>   15.8224 </r>
        <r>   25.4785 </r>
        <r>   25.8972 </r>
       </set>
       <set comment="kpoint 80">
        <r>   -3.8485 </r>
        <r>   -1.8456 </r>
        <r>    2.6710 </r>
        <r>    2.8047 </r>
        <r>   15.5324 </r>
        <r>   16.1327 </r>
        <r>   25.2082 </r>
        <r>   25.7873 </r>
       </set>
       <set comment="kpoint 81">
        <r>   -3.8973 </r>
        <r>   -1.7053 </r>
        <r>    2.5282 </r>
        <r>    2.7126 </r>
        <r>   15.8083 </r>
        <r>   16.4645 </r>
        <r>   24.9015 </r>
        <r>   25.6687 </r>
       </set>
       <set comment="kpoint 82">
        <r>   -3.9386 </r>
        <r>   -1.5707 </r>
        <r>    2.3798 </r>
        <r>    2.6273 </r>
        <r>   16.1060 </r>
        <r>   16.8150 </r>
        <r>   24.5611 </r>
        <r>   25.5415 </r>
       </set>
       <set comment="kpoint 83">
        <r>   -3.9724 </r>
        <r>   -1.4448 </r>
        <r>    2.2275 </r>
        <r>    2.5530 </r>
        <r>   16.4234 </r>
        <r>   17.1813 </r>
        <r>   24.1906 </r>
        <r>   25.4060 </r>
       </set>
       <set comment="kpoint 84">
        <r>   -3.9987 </r>
        <r>   -1.3305 </r>
        <r>    2.0731 </r>
        <r>    2.4937 </r>
        <r>   16.7582 </r>
        <r>   17.5602 </r>
        <r>   23.7951 </r>
        <r>   25.2619 </r>
       </set>
       <set comment="kpoint 85">
        <r>   -4.0177 </r>
        <r>   -1.2312 </r>
        <r>    1.9181 </r>
        <r>    2.4535 </r>
        <r>   17.1083 </r>
        <r>   17.9475 </r>
        <r>   23.3806 </r>
        <r>   25.1092 </r>
       </set>
       <set comment="kpoint 86">
        <r>   -4.0295 </r>
        <r>   -1.1499 </r>
        <r>    1.7641 </r>
        <r>    2.4362 </r>
        <r>   17.4717 </r>
        <r>   18.3377 </r>
        <r>   22.9548 </r>
        <r>   24.9477 </r>
       </set>
       <set comment="kpoint 87">
        <r>   -4.0342 </r>
        <r>   -1.0892 </r>
        <r>    1.6124 </r>
        <r>    2.4447 </r>
        <r>   17.8464 </r>
        <r>   18.7219 </r>
        <r>   22.5287 </r>
        <r>   24.7772 </r>
       </set>
       <set comment="kpoint 88">
        <r>   -4.0322 </r>
        <r>   -1.0507 </r>
        <r>    1.4642 </r>
        <r>    2.4807 </r>
        <r>   18.2305 </r>
        <r>   19.0842 </r>
        <r>   22.1202 </r>
        <r>   24.5975 </r>
       </set>
       <set comment="kpoint 89">
        <r>   -4.0235 </r>
        <r>   -1.0347 </r>
        <r>    1.3207 </r>
        <r>    2.5445 </r>
[...]
       </set>
       <set comment="band 5">
        <r>  0.1100  0.0370  0.0217  0.0171  0.0000  0.0000  0.0000  0.0000  0.0000 </r>
        <r>  0.1100  0.0370  0.0217  0.0171  0.0000  0.0000  0.0000  0.0000  0.0000 </r>
       </set>
       <set comment="band 6">
        <r>  0.0954  0.0328  0.0150  0.0463  0.0000  0.0000  0.0000  0.0000  0.0000 </r>
        <r>  0.0954  0.0328  0.0150  0.0463  0.0000  0.0000  0.0000  0.0000  0.0000 </r>
       </set>
       <set comment="band 7">
        <r>  0.0000  0.0327  0.2619  0.0982  0.0000  0.0000  0.0000  0.0000  0.0000 </r>
        <r>  0.0000  0.0327  0.2619  0.0982  0.0000  0.0000  0.0000  0.0000  0.0000 </r>
       </set>
       <set comment="band 8">
        <r>  0.0291  0.2985  0.0046  0.0661  0.0000  0.0000  0.0000  0.0000  0.0000 </r>
        <r>  0.0291  0.2985  0.0046  0.0661  0.0000  0.0000  0.0000  0.0000  0.0000 </r>
       </set>
      </set>
      <set comment="kpoint 20">
       <set comment="band 1">
        <r>  0.2563  0.0295  0.0180  0.0339  0.0000  0.0000  0.0000  0.0000  0.0000 </r>
        <r>  0.2563  0.0295  0.0180  0.0339  0.0000  0.0000  0.0000  0.0000  0.0000 </r>
       </set>
       <set comment="band 2">
        <r>  0.1890  0.0368  0.0361  0.0604  0.0000  0.0000  0.0000  0.0000  0.0000 </r>
        <r>  0.1890  0.0368  0.0361  0.0604  0.0000  0.0000  0.0000  0.0000  0.0000 </r>
       </set>
       <set comment="band 3">
        <r>  0.0003  0.1547  0.0254  0.0854  0.0000  0.0000  0.0000  0.0000  0.0000 </r>
        <r>  0.0003  0.1547  0.0254  0.0854  0.0000  0.0000  0.0000  0.0000  0.0000 </r>
       </set>
       <set comment="band 4">
        <r>  0.0000  0.0279  0.2235  0.0838  0.0000  0.0000  0.0000  0.0000  0.0000 </r>
        <r>  0.0000  0.0279  0.2235  0.0838  0.0000  0.0000  0.0000  0.0000  0.0000 </r>
       </set>
       <set comment="band 5">
        <r>  0.1026  0.0234  0.0206  0.0353  0.0000  0.0000  0.0000  0.0000  0.0000 </r>
        <r>  0.1026  0.0234  0.0206  0.0353  0.0000  0.0000  0.0000  0.0000  0.0000 </r>
       </set>
       <set comment="band 6">
        <r>  0.0649  0.1058  0.0195  0.0613  0.0000  0.0000  0.0000  0.0000  0.0000 </r>
        <r>  0.0649  0.1058  0.0195  0.0613  0.0000  0.0000  0.0000  0.0000  0.0000 </r>
       </set>
       <set comment="band 7">
        <r>  0.0000  0.0309  0.2475  0.0928  0.0000  0.0000  0.0000  0.0000  0.0000 </r>
        <r>  0.0000  0.0309  0.2475  0.0928  0.0000  0.0000  0.0000  0.0000  0.0000 </r>
       </set>
       <set comment="band 8">
        <r>  0.0741  0.2201  0.0103  0.0872  0.0000  0.0000  0.0000  0.0000  0.0000 </r>
        <r>  0.0741  0.2201  0.0103  0.0872  0.0000  0.0000  0.0000  0.0000  0.0000 </r>
       </set>
      </set>
      <set comment="kpoint 21">
       <set comment="band 1">
        <r>  0.2072  0.0186  0.0372  0.0557  0.0000  0.0000  0.0000  0.0000  0.0000 </r>
        <r>  0.2072  0.0186  0.0372  0.0557  0.0000  0.0000  0.0000  0.0000  0.0000 </r>
       </set>
       <set comment="band 2">
        <r>  0.2072  0.0186  0.0372  0.0557  0.0000  0.0000  0.0000  0.0000  0.0000 </r>
        <r>  0.2072  0.0186  0.0372  0.0557  0.0000  0.0000  0.0000  0.0000  0.0000 </r>
       </set>
       <set comment="band 3">
        <r>  0.0000  0.2466  0.0000  0.0822  0.0000  0.0000  0.0000  0.0000  0.0000 </r>
        <r>  0.0000  0.2466  0.0000  0.0822  0.0000  0.0000  0.0000  0.0000  0.0000 </r>
       </set>
       <set comment="band 4">
        <r>  0.0000  0.0274  0.2192  0.0822  0.0000  0.0000  0.0000  0.0000  0.0000 </r>
        <r>  0.0000  0.0274  0.2192  0.0822  0.0000  0.0000  0.0000  0.0000  0.0000 </r>
       </set>
       <set comment="band 5">
        <r>  0.1187  0.0087  0.0175  0.0262  0.0000  0.0000  0.0000  0.0000  0.0000 </r>
        <r>  0.1187  0.0087  0.0175  0.0262  0.0000  0.0000  0.0000  0.0000  0.0000 </r>
       </set>
       <set comment="band 6">
        <r>  0.1187  0.0087  0.0175  0.0262  0.0000  0.0000  0.0000  0.0000  0.0000 </r>
        <r>  0.1187  0.0087  0.0175  0.0262  0.0000  0.0000  0.0000  0.0000  0.0000 </r>
       </set>
       <set comment="band 7">
        <r>  0.0000  0.3144  0.0000  0.1048  0.0000  0.0000  0.0000  0.0000  0.0000 </r>
        <r>  0.0000  0.3144  0.0000  0.1048  0.0000  0.0000  0.0000  0.0000  0.0000 </r>
       </set>
       <set comment="band 8">
        <r>  0.0000  0.0349  0.2795  0.1048  0.0000  0.0000  0.0000  0.0000  0.0000 </r>
        <r>  0.0000  0.0349  0.2795  0.1048  0.0000  0.0000  0.0000  0.0000  0.0000 </r>
       </set>
      </set>
      <set comment="kpoint 22">
       <set comment="band 1">
        <r>  0.2523  0.0014  0.0026  0.0321  0.0000  0.0000  0.0000  0.0000  0.0000 </r>
        <r>  0.2523  0.0014  0.0026  0.0321  0.0000  0.0000  0.0000  0.0000  0.0000 </r>
       </set>
       <set comment="band 2">
        <r>  0.1061  0.0551  0.0278  0.1528  0.0000  0.0000  0.0000  0.0000  0.0000 </r>
        <r>  0.1061  0.0551  0.0278  0.1528  0.0000  0.0000  0.0000  0.0000  0.0000 </r>
       </set>
       <set comment="band 3">
        <r>  0.0216  0.1274  0.0682  0.0983  0.0000  0.0000  0.0000  0.0000  0.0000 </r>
        <r>  0.0216  0.1274  0.0682  0.0983  0.0000  0.0000  0.0000  0.0000  0.0000 </r>
       </set>
       <set comment="band 4">
        <r>  0.0175  0.1198  0.2163  0.0001  0.0000  0.0000  0.0000  0.0000  0.0000 </r>
        <r>  0.0175  0.1198  0.2163  0.0001  0.0000  0.0000  0.0000  0.0000  0.0000 </r>
       </set>
       <set comment="band 5">
        <r>  0.0469  0.0782  0.1317  0.0151  0.0000  0.0000  0.0000  0.0000  0.0000 </r>
        <r>  0.0469  0.0782  0.1317  0.0151  0.0000  0.0000  0.0000  0.0000  0.0000 </r>
       </set>
       <set comment="band 6">
        <r>  0.0383  0.1169  0.0829  0.0666  0.0000  0.0000  0.0000  0.0000  0.0000 </r>
        <r>  0.0383  0.1169  0.0829  0.0666  0.0000  0.0000  0.0000  0.0000  0.0000 </r>
       </set>
       <set comment="band 7">
        <r>  0.0167  0.1470  0.1205  0.0600  0.0000  0.0000  0.0000  0.0000  0.0000 </r>
        <r>  0.0167  0.1470  0.1205  0.0600  0.0000  0.0000  0.0000  0.0000  0.0000 </r>
       </set>
       <set comment="band 8">
        <r>  0.1426  0.0102  0.0065  0.0741  0.0000  0.0000  0.0000  0.0000  0.0000 </r>
        <r>  0.1426  0.0102  0.0065  0.0741  0.0000  0.0000  0.0000  0.0000  0.0000 </r>
       </set>
      </set>
      <set comment="kpoint 23">
       <set comment="band 1">
        <r>  0.2433  0.0013  0.0054  0.0506  0.0000  0.0000  0.0000  0.0000  0.0000 </r>
        <r>  0.2433  0.0013  0.0054  0.0506  0.0000  0.0000  0.0000  0.0000  0.0000 </r>
       </set>
       <set comment="band 2">
        <r>  0.1191  0.0684  0.0243  0.0995  0.0000  0.0000  0.0000  0.0000  0.0000 </r>
        <r>  0.1191  0.0684  0.0243  0.0995  0.0000  0.0000  0.0000  0.0000  0.0000 </r>
       </set>
       <set comment="band 3">
        <r>  0.0545  0.1261  0.0403  0.1032  0.0000  0.0000  0.0000  0.0000  0.0000 </r>
        <r>  0.0545  0.1261  0.0403  0.1032  0.0000  0.0000  0.0000  0.0000  0.0000 </r>
       </set>
       <set comment="band 4">
        <r>  0.0103  0.0835  0.2424  0.0020  0.0000  0.0000  0.0000  0.0000  0.0000 </r>
        <r>  0.0103  0.0835  0.2424  0.0020  0.0000  0.0000  0.0000  0.0000  0.0000 </r>
       </set>
       <set comment="band 5">
        <r>  0.0418  0.0991  0.0896  0.0212  0.0000  0.0000  0.0000  0.0000  0.0000 </r>
        <r>  0.0418  0.0991  0.0896  0.0212  0.0000  0.0000  0.0000  0.0000  0.0000 </r>
       </set>
       <set comment="band 6">
        <r>  0.0610  0.0522  0.1109  0.0449  0.0000  0.0000  0.0000  0.0000  0.0000 </r>
        <r>  0.0610  0.0522  0.1109  0.0449  0.0000  0.0000  0.0000  0.0000  0.0000 </r>
       </set>
       <set comment="band 7">
        <r>  0.1291  0.0922  0.0195  0.0839  0.0000  0.0000  0.0000  0.0000  0.0000 </r>
        <r>  0.1291  0.0922  0.0195  0.0839  0.0000  0.0000  0.0000  0.0000  0.0000 </r>
       </set>
       <set comment="band 8">
        <r>  0.0284  0.1274  0.0966  0.0572  0.0000  0.0000  0.0000  0.0000  0.0000 </r>
        <r>  0.0284  0.1274  0.0966  0.0572  0.0000  0.0000  0.0000  0.0000  0.0000 </r>
       </set>
      </set>
      <set comment="kpoint 24">
       <set comment="band 1">
        <r>  0.2748  0.0222  0.0052  0.0251  0.0000  0.0000  0.0000  0.0000  0.0000 </r>
        <r>  0.2748  0.0222  0.0052  0.0251  0.0000  0.0000  0.0000  0.0000  0.0000 </r>
       </set>
       <set comment="band 2">
        <r>  0.0928  0.0410  0.0226  0.1227  0.0000  0.0000  0.0000  0.0000  0.0000 </r>
        <r>  0.0928  0.0410  0.0226  0.1227  0.0000  0.0000  0.0000  0.0000  0.0000 </r>
       </set>
       <set comment="band 3">
        <r>  0.0677  0.1798  0.0106  0.0716  0.0000  0.0000  0.0000  0.0000  0.0000 </r>
        <r>  0.0677  0.1798  0.0106  0.0716  0.0000  0.0000  0.0000  0.0000  0.0000 </r>
       </set>
       <set comment="band 4">
        <r>  0.0020  0.0302  0.2725  0.0253  0.0000  0.0000  0.0000  0.0000  0.0000 </r>
        <r>  0.0020  0.0302  0.2725  0.0253  0.0000  0.0000  0.0000  0.0000  0.0000 </r>
       </set>
       <set comment="band 5">
        <r>  0.0160  0.0980  0.0369  0.0647  0.0000  0.0000  0.0000  0.0000  0.0000 </r>
        <r>  0.0160  0.0980  0.0369  0.0647  0.0000  0.0000  0.0000  0.0000  0.0000 </r>
       </set>
       <set comment="band 6">
        <r>  0.1156  0.0086  0.1567  0.0050  0.0000  0.0000  0.0000  0.0000  0.0000 </r>
        <r>  0.1156  0.0086  0.1567  0.0050  0.0000  0.0000  0.0000  0.0000  0.0000 </r>
       </set>
       <set comment="band 7">
        <r>  0.0975  0.1087  0.0750  0.0882  0.0000  0.0000  0.0000  0.0000  0.0000 </r>
        <r>  0.0975  0.1087  0.0750  0.0882  0.0000  0.0000  0.0000  0.0000  0.0000 </r>
       </set>
       <set comment="band 8">
        <r>  0.0351  0.1184  0.0309  0.1526  0.0000  0.0000  0.0000  0.0000  0.0000 </r>
        <r>  0.0351  0.1184  0.0309  0.1526  0.0000  0.0000  0.0000  0.0000  0.0000 </r>
       </set>
      </set>
      <set comment="kpoint 25">
       <set comment="band 1">
        <r>  0.2341  0.0061  0.0110  0.0518  0.0000  0.0000  0.0000  0.0000  0.0000 </r>
        <r>  0.2341  0.0061  0.0110  0.0518  0.0000  0.0000  0.0000  0.0000  0.0000 </r>
       </set>
       <set comment="band 2">
        <r>  0.1783  0.0381  0.0312  0.0991  0.0000  0.0000  0.0000  0.0000  0.0000 </r>
        <r>  0.1783  0.0381  0.0312  0.0991  0.0000  0.0000  0.0000  0.0000  0.0000 </r>
       </set>
       <set comment="band 3">
        <r>  0.0206  0.1163  0.0693  0.1013  0.0000  0.0000  0.0000  0.0000  0.0000 </r>
        <r>  0.0206  0.1163  0.0693  0.1013  0.0000  0.0000  0.0000  0.0000  0.0000 </r>
       </set>
       <set comment="band 4">
        <r>  0.0040  0.1281  0.1703  0.0098  0.0000  0.0000  0.0000  0.0000  0.0000 </r>
        <r>  0.0040  0.1281  0.1703  0.0098  0.0000  0.0000  0.0000  0.0000  0.0000 </r>
       </set>
       <set comment="band 5">
        <r>  0.0796  0.0573  0.0944  0.0037  0.0000  0.0000  0.0000  0.0000  0.0000 </r>
        <r>  0.0796  0.0573  0.0944  0.0037  0.0000  0.0000  0.0000  0.0000  0.0000 </r>
       </set>
       <set comment="band 6">
        <r>  0.0814  0.0031  0.0021  0.0889  0.0000  0.0000  0.0000  0.0000  0.0000 </r>
        <r>  0.0814  0.0031  0.0021  0.0889  0.0000  0.0000  0.0000  0.0000  0.0000 </r>
       </set>
       <set comment="band 7">
        <r>  0.0608  0.1341  0.1254  0.0250  0.0000  0.0000  0.0000  0.0000  0.0000 </r>
        <r>  0.0608  0.1341  0.1254  0.0250  0.0000  0.0000  0.0000  0.0000  0.0000 </r>
       </set>
       <set comment="band 8">
        <r>  0.0107  0.1681  0.1293  0.0844  0.0000  0.0000  0.0000  0.0000  0.0000 </r>
        <r>  0.0107  0.1681  0.1293  0.0844  0.0000  0.0000  0.0000  0.0000  0.0000 </r>
       </set>
      </set>
      <set comment="kpoint 26">
       <set comment="band 1">
        <r>  0.2425  0.0164  0.0141  0.0519  0.0000  0.0000  0.0000  0.0000  0.0000 </r>
        <r>  0.2425  0.0164  0.0141  0.0519  0.0000  0.0000  0.0000  0.0000  0.0000 </r>
       </set>
       <set comment="band 2">
        <r>  0.1722  0.0385  0.0303  0.0816  0.0000  0.0000  0.0000  0.0000  0.0000 </r>
        <r>  0.1722  0.0385  0.0303  0.0816  0.0000  0.0000  0.0000  0.0000  0.0000 </r>
       </set>
       <set comment="band 3">
        <r>  0.0375  0.1780  0.0118  0.0636  0.0000  0.0000  0.0000  0.0000  0.0000 </r>
        <r>  0.0375  0.1780  0.0118  0.0636  0.0000  0.0000  0.0000  0.0000  0.0000 </r>
       </set>
       <set comment="band 4">
        <r>  0.0051  0.0273  0.2269  0.0501  0.0000  0.0000  0.0000  0.0000  0.0000 </r>
        <r>  0.0051  0.0273  0.2269  0.0501  0.0000  0.0000  0.0000  0.0000  0.0000 </r>
       </set>
       <set comment="band 5">
        <r>  0.0710  0.0323  0.0670  0.0419  0.0000  0.0000  0.0000  0.0000  0.0000 </r>
        <r>  0.0710  0.0323  0.0670  0.0419  0.0000  0.0000  0.0000  0.0000  0.0000 </r>
       </set>
       <set comment="band 6">
        <r>  0.0320  0.0568  0.0414  0.1023  0.0000  0.0000  0.0000  0.0000  0.0000 </r>
        <r>  0.0320  0.0568  0.0414  0.1023  0.0000  0.0000  0.0000  0.0000  0.0000 </r>
       </set>
       <set comment="band 7">
        <r>  0.0955  0.1064  0.1345  0.0047  0.0000  0.0000  0.0000  0.0000  0.0000 </r>
        <r>  0.0955  0.1064  0.1345  0.0047  0.0000  0.0000  0.0000  0.0000  0.0000 </r>
       </set>
       <set comment="band 8">
        <r>  0.0496  0.1521  0.0462  0.1308  0.0000  0.0000  0.0000  0.0000  0.0000 </r>
        <r>  0.0496  0.1521  0.0462  0.1308  0.0000  0.0000  0.0000  0.0000  0.0000 </r>
       </set>
      </set>
      <set comment="kpoint 27">
       <set comment="band 1">
        <r>  0.2414  0.0575  0.0062  0.0126  0.0000  0.0000  0.0000  0.0000  0.0000 </r>
        <r>  0.2414  0.0575  0.0062  0.0126  0.0000  0.0000  0.0000  0.0000  0.0000 </r>
       </set>
       <set comment="band 2">
        <r>  0.1772  0.0636  0.0328  0.0585  0.0000  0.0000  0.0000  0.0000  0.0000 </r>
        <r>  0.1772  0.0636  0.0328  0.0585  0.0000  0.0000  0.0000  0.0000  0.0000 </r>
       </set>
       <set comment="band 3">
        <r>  0.0262  0.1004  0.0468  0.1066  0.0000  0.0000  0.0000  0.0000  0.0000 </r>
        <r>  0.0262  0.1004  0.0468  0.1066  0.0000  0.0000  0.0000  0.0000  0.0000 </r>
       </set>
       <set comment="band 4">
        <r>  0.0095  0.0290  0.2008  0.0809  0.0000  0.0000  0.0000  0.0000  0.0000 </r>
        <r>  0.0095  0.0290  0.2008  0.0809  0.0000  0.0000  0.0000  0.0000  0.0000 </r>
       </set>
       <set comment="band 5">
        <r>  0.0531  0.0250  0.0570  0.0819  0.0000  0.0000  0.0000  0.0000  0.0000 </r>
        <r>  0.0531  0.0250  0.0570  0.0819  0.0000  0.0000  0.0000  0.0000  0.0000 </r>
       </set>
       <set comment="band 6">
        <r>  0.0308  0.0188  0.1662  0.0759  0.0000  0.0000  0.0000  0.0000  0.0000 </r>
        <r>  0.0308  0.0188  0.1662  0.0759  0.0000  0.0000  0.0000  0.0000  0.0000 </r>
       </set>
       <set comment="band 7">
        <r>  0.1250  0.1176  0.0174  0.0566  0.0000  0.0000  0.0000  0.0000  0.0000 </r>
        <r>  0.1250  0.1176  0.0174  0.0566  0.0000  0.0000  0.0000  0.0000  0.0000 </r>
       </set>
       <set comment="band 8">
        <r>  0.0515  0.1044  0.0716  0.1517  0.0000  0.0000  0.0000  0.0000  0.0000 </r>
        <r>  0.0515  0.1044  0.0716  0.1517  0.0000  0.0000  0.0000  0.0000  0.0000 </r>
       </set>
      </set>
      <set comment="kpoint 28">
       <set comment="band 1">
        <r>  0.2158  0.0239  0.0356  0.0507  0.0000  0.0000  0.0000  0.0000  0.0000 </r>
        <r>  0.2158  0.0239  0.0356  0.0507  0.0000  0.0000  0.0000  0.0000  0.0000 </r>
       </set>
       <set comment="band 2">
        <r>  0.2158  0.0198  0.0379  0.0526  0.0000  0.0000  0.0000  0.0000  0.0000 </r>
        <r>  0.2158  0.0198  0.0379  0.0526  0.0000  0.0000  0.0000  0.0000  0.0000 </r>
       </set>
       <set comment="band 3">
        <r>  0.0084  0.2126  0.0193  0.0623  0.0000  0.0000  0.0000  0.0000  0.0000 </r>
        <r>  0.0084  0.2126  0.0193  0.0623  0.0000  0.0000  0.0000  0.0000  0.0000 </r>
       </set>
       <set comment="band 4">
        <r>  0.0084  0.0265  0.1768  0.0909  0.0000  0.0000  0.0000  0.0000  0.0000 </r>
        <r>  0.0084  0.0265  0.1768  0.0909  0.0000  0.0000  0.0000  0.0000  0.0000 </r>
       </set>
       <set comment="band 5">
        <r>  0.0898  0.0451  0.0643  0.0018  0.0000  0.0000  0.0000  0.0000  0.0000 </r>
        <r>  0.0898  0.0451  0.0643  0.0018  0.0000  0.0000  0.0000  0.0000  0.0000 </r>
       </set>
       <set comment="band 6">
        <r>  0.0898  0.0046  0.0099  0.0967  0.0000  0.0000  0.0000  0.0000  0.0000 </r>
        <r>  0.0898  0.0046  0.0099  0.0967  0.0000  0.0000  0.0000  0.0000  0.0000 </r>
       </set>
       <set comment="band 7">
        <r>  0.0284  0.2563  0.0234  0.0767  0.0000  0.0000  0.0000  0.0000  0.0000 </r>
        <r>  0.0284  0.2563  0.0234  0.0767  0.0000  0.0000  0.0000  0.0000  0.0000 </r>
       </set>
       <set comment="band 8">
        <r>  0.0284  0.0306  0.2142  0.1116  0.0000  0.0000  0.0000  0.0000  0.0000 </r>
        <r>  0.0284  0.0306  0.2142  0.1116  0.0000  0.0000  0.0000  0.0000  0.0000 </r>
       </set>
      </set>
      <set comment="kpoint 29">
       <set comment="band 1">
        <r>  0.2355  0.0436  0.0349  0.0262  0.0000  0.0000  0.0000  0.0000  0.0000 </r>
        <r>  0.2355  0.0436  0.0349  0.0262  0.0000  0.0000  0.0000  0.0000  0.0000 </r>
       </set>
       <set comment="band 2">
        <r>  0.2355  0.0436  0.0349  0.0262  0.0000  0.0000  0.0000  0.0000  0.0000 </r>
        <r>  0.2355  0.0436  0.0349  0.0262  0.0000  0.0000  0.0000  0.0000  0.0000 </r>
       </set>
       <set comment="band 3">
        <r>  0.0000  0.1536  0.0921  0.0307  0.0000  0.0000  0.0000  0.0000  0.0000 </r>
        <r>  0.0000  0.1536  0.0921  0.0307  0.0000  0.0000  0.0000  0.0000  0.0000 </r>
       </set>
       <set comment="band 4">
        <r>  0.0000  0.0166  0.0921  0.1677  0.0000  0.0000  0.0000  0.0000  0.0000 </r>
        <r>  0.0000  0.0166  0.0921  0.1677  0.0000  0.0000  0.0000  0.0000  0.0000 </r>
       </set>
       <set comment="band 5">
        <r>  0.0000  0.0617  0.0711  0.0806  0.0000  0.0000  0.0000  0.0000  0.0000 </r>
        <r>  0.0000  0.0617  0.0711  0.0806  0.0000  0.0000  0.0000  0.0000  0.0000 </r>
       </set>
       <set comment="band 6">
        <r>  0.0000  0.0149  0.0712  0.1274  0.0000  0.0000  0.0000  0.0000  0.0000 </r>
        <r>  0.0000  0.0149  0.0712  0.1274  0.0000  0.0000  0.0000  0.0000  0.0000 </r>
       </set>
       <set comment="band 7">
        <r>  0.1256  0.0910  0.0728  0.0546  0.0000  0.0000  0.0000  0.0000  0.0000 </r>
        <r>  0.1255  0.0910  0.0728  0.0546  0.0000  0.0000  0.0000  0.0000  0.0000 </r>
       </set>
       <set comment="band 8">
        <r>  0.1255  0.0910  0.0728  0.0546  0.0000  0.0000  0.0000  0.0000  0.0000 </r>
        <r>  0.1256  0.0910  0.0728  0.0546  0.0000  0.0000  0.0000  0.0000  0.0000 </r>
       </set>
      </set>
     </set>
    </set>
   </array>
  </projected>
 </calculation>
 <structure name="finalpos" >
  <crystal>
   <varray name="basis" >
    <v>       2.52631355       0.00000000       0.00000000 </v>
    <v>       1.26315677       2.18785171       0.00000000 </v>
    <v>       1.26315677       0.72928390       2.06272637 </v>
   </varray>
   <i name="volume">     11.40110000 </i>
   <varray name="rec_basis" >
    <v>       0.39583368      -0.22853468      -0.16159843 </v>
    <v>       0.00000000       0.45706937      -0.16159843 </v>
    <v>       0.00000000       0.00000000       0.48479528 </v>
   </varray>
  </crystal>
  <varray name="positions" >
   <v>       0.00000000       0.00000000       0.00000000 </v>
   <v>       0.25000000       0.25000000       0.25000000 </v>
  </varray>
 </structure>
</modeling>
