fcc C                                   
           1
     2.526314    0.000000    0.000000
     1.263157    2.187852    0.000000
     1.263157    0.729284    2.062726
   C 
     2
Direct configuration=     1
   0.00000000  0.00000000  0.00000000
   0.25000000  0.25000000  0.25000000
